 Entering Gaussian System, Link 0=g09
 Input=/home/nqtcm/diego/estrutura60.com
 Output=/home/nqtcm/diego/estrutura60.log
 Initial command:
 /scr/programas/g09/l1.exe "/scr/nqtcm/Gau-13850.inp" -scrdir="/scr/nqtcm/"
 Entering Link 1 = /scr/programas/g09/l1.exe PID=     13852.
  
 Copyright (c) 1988,1990,1992,1993,1995,1998,2003,2009,2013,
            Gaussian, Inc.  All Rights Reserved.
  
 This is part of the Gaussian(R) 09 program.  It is based on
 the Gaussian(R) 03 system (copyright 2003, Gaussian, Inc.),
 the Gaussian(R) 98 system (copyright 1998, Gaussian, Inc.),
 the Gaussian(R) 94 system (copyright 1995, Gaussian, Inc.),
 the Gaussian 92(TM) system (copyright 1992, Gaussian, Inc.),
 the Gaussian 90(TM) system (copyright 1990, Gaussian, Inc.),
 the Gaussian 88(TM) system (copyright 1988, Gaussian, Inc.),
 the Gaussian 86(TM) system (copyright 1986, Carnegie Mellon
 University), and the Gaussian 82(TM) system (copyright 1983,
 Carnegie Mellon University). Gaussian is a federally registered
 trademark of Gaussian, Inc.
  
 This software contains proprietary and confidential information,
 including trade secrets, belonging to Gaussian, Inc.
  
 This software is provided under written license and may be
 used, copied, transmitted, or stored only in accord with that
 written license.
  
 The following legend is applicable only to US Government
 contracts under FAR:
  
                    RESTRICTED RIGHTS LEGEND
  
 Use, reproduction and disclosure by the US Government is
 subject to restrictions as set forth in subparagraphs (a)
 and (c) of the Commercial Computer Software - Restricted
 Rights clause in FAR 52.227-19.
  
 Gaussian, Inc.
 340 Quinnipiac St., Bldg. 40, Wallingford CT 06492
  
  
 ---------------------------------------------------------------
 Warning -- This program may not be used in any manner that
 competes with the business of Gaussian, Inc. or will provide
 assistance to any competitor of Gaussian, Inc.  The licensee
 of this program is prohibited from giving any competitor of
 Gaussian, Inc. access to this program.  By using this program,
 the user acknowledges that Gaussian, Inc. is engaged in the
 business of creating and licensing software in the field of
 computational chemistry and represents and warrants to the
 licensee that it is not a competitor of Gaussian, Inc. and that
 it will not use this program in any manner prohibited above.
 ---------------------------------------------------------------
  

 Cite this work as:
 Gaussian 09, Revision D.01,
 M. J. Frisch, G. W. Trucks, H. B. Schlegel, G. E. Scuseria, 
 M. A. Robb, J. R. Cheeseman, G. Scalmani, V. Barone, B. Mennucci, 
 G. A. Petersson, H. Nakatsuji, M. Caricato, X. Li, H. P. Hratchian, 
 A. F. Izmaylov, J. Bloino, G. Zheng, J. L. Sonnenberg, M. Hada, 
 M. Ehara, K. Toyota, R. Fukuda, J. Hasegawa, M. Ishida, T. Nakajima, 
 Y. Honda, O. Kitao, H. Nakai, T. Vreven, J. A. Montgomery, Jr., 
 J. E. Peralta, F. Ogliaro, M. Bearpark, J. J. Heyd, E. Brothers, 
 K. N. Kudin, V. N. Staroverov, T. Keith, R. Kobayashi, J. Normand, 
 K. Raghavachari, A. Rendell, J. C. Burant, S. S. Iyengar, J. Tomasi, 
 M. Cossi, N. Rega, J. M. Millam, M. Klene, J. E. Knox, J. B. Cross, 
 V. Bakken, C. Adamo, J. Jaramillo, R. Gomperts, R. E. Stratmann, 
 O. Yazyev, A. J. Austin, R. Cammi, C. Pomelli, J. W. Ochterski, 
 R. L. Martin, K. Morokuma, V. G. Zakrzewski, G. A. Voth, 
 P. Salvador, J. J. Dannenberg, S. Dapprich, A. D. Daniels, 
 O. Farkas, J. B. Foresman, J. V. Ortiz, J. Cioslowski, 
 and D. J. Fox, Gaussian, Inc., Wallingford CT, 2013.
 
 ******************************************
 Gaussian 09:  EM64L-G09RevD.01 24-Apr-2013
                24-Aug-2019 
 ******************************************
 %mem=7Gb
 %nproc=4
 Will use up to    4 processors via shared memory.
 ----------------------------------------------------------------------
 #PBEPBE/gen scf=(maxcycle=500,conver=4) NMR=GIAO Scrf=(solvent=Dichlor
 omethane)
 ----------------------------------------------------------------------
 1/38=1/1;
 2/12=2,17=6,18=5,40=1/2;
 3/5=7,11=2,16=1,25=1,30=1,70=2201,72=9,74=1009/1,2,8,3;
 4//1;
 5/5=2,6=4,7=500,38=5,53=9/2;
 8/6=1,10=90,11=11/1;
 10/13=100,45=16/2;
 6/7=2,8=2,9=2,10=2,28=1/1;
 99/9=1/99;
 Leave Link    1 at Sat Aug 24 02:18:53 2019, MaxMem=   939524096 cpu:         0.3
 (Enter /scr/programas/g09/l101.exe)
 ------------
 estrutura 60
 ------------
 Symbolic Z-matrix:
 Charge =  0 Multiplicity = 1
 P                     2.29797  -0.51459   0.35242 
 P                    -2.40419  -0.7346    0.06067 
 C                     3.23203   1.03378   0.44295 
 C                     3.59405   1.27574   1.72637 
 C                     3.19253   0.20074   2.6864 
 C                     2.55163  -0.84414   2.10789 
 C                     4.30792   2.50787   2.19366 
 C                     3.49119   0.30829   4.15216 
 C                    -3.56894   0.14661  -1.00286 
 C                    -4.34418  -0.73855  -1.67437 
 C                    -4.0695   -2.17246  -1.33817 
 C                    -3.0871   -2.3421   -0.42203 
 C                    -5.39122  -0.36283  -2.68197 
 C                    -4.84799  -3.28306  -1.97792 
 H                     3.42347   1.69354  -0.40282 
 H                     2.1369   -1.70734   2.62608 
 H                     5.24067   2.25176   2.72287 
 H                     4.55035   3.17419   1.35437 
 H                     3.68212   3.06909   2.90808 
 H                     3.20085   1.29251   4.55511 
 H                     2.9669   -0.4711    4.72132 
 H                     4.57365   0.19439   4.33878 
 H                    -3.59529   1.2273   -1.1326 
 H                    -2.71781  -3.2937   -0.04282 
 H                    -6.35088  -0.8646   -2.46686 
 H                    -5.56018   0.7241   -2.69795 
 H                    -5.08687  -0.6814   -3.69634 
 H                    -4.8111   -3.21617  -3.07689 
 H                    -4.46317  -4.26643  -1.67562 
 H                    -5.91212  -3.22864  -1.69471 
 Pt                   -0.0431   -0.52085  -0.04902 
 Sn                    0.0124    1.91527  -0.93376 
 Cl                    0.48415   3.65623   0.67292 
 Cl                   -1.80057   3.00272  -2.10407 
 Cl                    1.73718   2.3367   -2.59556 
 Cl                    0.09847  -2.85058   0.70839 
 C                    -2.89088  -0.40824   1.80733 
 C                    -2.31489  -1.17457   2.83789 
 C                    -3.80218   0.61151   2.12813 
 C                    -2.65885  -0.92393   4.16891 
 H                    -1.59161  -1.95744   2.59748 
 C                    -4.13296   0.86253   3.46496 
 H                    -4.25764   1.21556   1.34148 
 C                    -3.56329   0.09608   4.48573 
 H                    -2.20945  -1.52641   4.9625 
 H                    -4.83835   1.66228   3.70475 
 H                    -3.82224   0.29602   5.52923 
 C                     3.27765  -1.66884  -0.67648 
 C                     3.62798  -2.94784  -0.20989 
 C                     3.67943  -1.25767  -1.96112 
 C                     4.38722  -3.8008   -1.01743 
 H                     3.31006  -3.28269   0.77991 
 C                     4.43961  -2.11353  -2.76024 
 H                     3.39897  -0.26889  -2.34054 
 C                     4.79603  -3.38361  -2.2912 
 H                     4.6605   -4.79298  -0.6478 
 H                     4.75579  -1.78335  -3.75529 
 H                     5.39315  -4.05117  -2.91695 
 
 NAtoms=     58 NQM=       58 NQMF=       0 NMMI=      0 NMMIF=      0
                NMic=       0 NMicF=      0.
                    Isotopes and Nuclear Properties:
 (Nuclear quadrupole moments (NQMom) in fm**2, nuclear magnetic moments (NMagM)
  in nuclear magnetons)

  Atom         1           2           3           4           5           6           7           8           9          10
 IAtWgt=          31          31          12          12          12          12          12          12          12          12
 AtmWgt=  30.9737634  30.9737634  12.0000000  12.0000000  12.0000000  12.0000000  12.0000000  12.0000000  12.0000000  12.0000000
 NucSpn=           1           1           0           0           0           0           0           0           0           0
 AtZEff=   0.0000000   0.0000000   0.0000000   0.0000000   0.0000000   0.0000000   0.0000000   0.0000000   0.0000000   0.0000000
 NQMom=    0.0000000   0.0000000   0.0000000   0.0000000   0.0000000   0.0000000   0.0000000   0.0000000   0.0000000   0.0000000
 NMagM=    1.1316000   1.1316000   0.0000000   0.0000000   0.0000000   0.0000000   0.0000000   0.0000000   0.0000000   0.0000000
 AtZNuc=  15.0000000  15.0000000   6.0000000   6.0000000   6.0000000   6.0000000   6.0000000   6.0000000   6.0000000   6.0000000

  Atom        11          12          13          14          15          16          17          18          19          20
 IAtWgt=          12          12          12          12           1           1           1           1           1           1
 AtmWgt=  12.0000000  12.0000000  12.0000000  12.0000000   1.0078250   1.0078250   1.0078250   1.0078250   1.0078250   1.0078250
 NucSpn=           0           0           0           0           1           1           1           1           1           1
 AtZEff=   0.0000000   0.0000000   0.0000000   0.0000000   0.0000000   0.0000000   0.0000000   0.0000000   0.0000000   0.0000000
 NQMom=    0.0000000   0.0000000   0.0000000   0.0000000   0.0000000   0.0000000   0.0000000   0.0000000   0.0000000   0.0000000
 NMagM=    0.0000000   0.0000000   0.0000000   0.0000000   2.7928460   2.7928460   2.7928460   2.7928460   2.7928460   2.7928460
 AtZNuc=   6.0000000   6.0000000   6.0000000   6.0000000   1.0000000   1.0000000   1.0000000   1.0000000   1.0000000   1.0000000

  Atom        21          22          23          24          25          26          27          28          29          30
 IAtWgt=           1           1           1           1           1           1           1           1           1           1
 AtmWgt=   1.0078250   1.0078250   1.0078250   1.0078250   1.0078250   1.0078250   1.0078250   1.0078250   1.0078250   1.0078250
 NucSpn=           1           1           1           1           1           1           1           1           1           1
 AtZEff=   0.0000000   0.0000000   0.0000000   0.0000000   0.0000000   0.0000000   0.0000000   0.0000000   0.0000000   0.0000000
 NQMom=    0.0000000   0.0000000   0.0000000   0.0000000   0.0000000   0.0000000   0.0000000   0.0000000   0.0000000   0.0000000
 NMagM=    2.7928460   2.7928460   2.7928460   2.7928460   2.7928460   2.7928460   2.7928460   2.7928460   2.7928460   2.7928460
 AtZNuc=   1.0000000   1.0000000   1.0000000   1.0000000   1.0000000   1.0000000   1.0000000   1.0000000   1.0000000   1.0000000

  Atom        31          32          33          34          35          36          37          38          39          40
 IAtWgt=         195         118          35          35          35          35          12          12          12          12
 AtmWgt= 194.9648000 117.9018000  34.9688527  34.9688527  34.9688527  34.9688527  12.0000000  12.0000000  12.0000000  12.0000000
 NucSpn=           1           0           3           3           3           3           0           0           0           0
 AtZEff=   0.0000000   0.0000000   0.0000000   0.0000000   0.0000000   0.0000000   0.0000000   0.0000000   0.0000000   0.0000000
 NQMom=    0.0000000   0.0000000  -8.1650000  -8.1650000  -8.1650000  -8.1650000   0.0000000   0.0000000   0.0000000   0.0000000
 NMagM=    0.6095000   0.0000000   0.8218740   0.8218740   0.8218740   0.8218740   0.0000000   0.0000000   0.0000000   0.0000000
 AtZNuc=  78.0000000  50.0000000  17.0000000  17.0000000  17.0000000  17.0000000   6.0000000   6.0000000   6.0000000   6.0000000

  Atom        41          42          43          44          45          46          47          48          49          50
 IAtWgt=           1          12           1          12           1           1           1          12          12          12
 AtmWgt=   1.0078250  12.0000000   1.0078250  12.0000000   1.0078250   1.0078250   1.0078250  12.0000000  12.0000000  12.0000000
 NucSpn=           1           0           1           0           1           1           1           0           0           0
 AtZEff=   0.0000000   0.0000000   0.0000000   0.0000000   0.0000000   0.0000000   0.0000000   0.0000000   0.0000000   0.0000000
 NQMom=    0.0000000   0.0000000   0.0000000   0.0000000   0.0000000   0.0000000   0.0000000   0.0000000   0.0000000   0.0000000
 NMagM=    2.7928460   0.0000000   2.7928460   0.0000000   2.7928460   2.7928460   2.7928460   0.0000000   0.0000000   0.0000000
 AtZNuc=   1.0000000   6.0000000   1.0000000   6.0000000   1.0000000   1.0000000   1.0000000   6.0000000   6.0000000   6.0000000

  Atom        51          52          53          54          55          56          57          58
 IAtWgt=          12           1          12           1          12           1           1           1
 AtmWgt=  12.0000000   1.0078250  12.0000000   1.0078250  12.0000000   1.0078250   1.0078250   1.0078250
 NucSpn=           0           1           0           1           0           1           1           1
 AtZEff=   0.0000000   0.0000000   0.0000000   0.0000000   0.0000000   0.0000000   0.0000000   0.0000000
 NQMom=    0.0000000   0.0000000   0.0000000   0.0000000   0.0000000   0.0000000   0.0000000   0.0000000
 NMagM=    0.0000000   2.7928460   0.0000000   2.7928460   0.0000000   2.7928460   2.7928460   2.7928460
 AtZNuc=   6.0000000   1.0000000   6.0000000   1.0000000   6.0000000   1.0000000   1.0000000   1.0000000
 Leave Link  101 at Sat Aug 24 02:18:53 2019, MaxMem=   939524096 cpu:         0.6
 (Enter /scr/programas/g09/l202.exe)
 Stoichiometry    C24H26Cl4P2PtSn
 Framework group  C1[X(C24H26Cl4P2PtSn)]
 Deg. of freedom   168
 Full point group                 C1      NOp   1
 Largest Abelian subgroup         C1      NOp   1
 Largest concise Abelian subgroup C1      NOp   1
                         Standard orientation:                         
 ---------------------------------------------------------------------
 Center     Atomic      Atomic             Coordinates (Angstroms)
 Number     Number       Type             X           Y           Z
 ---------------------------------------------------------------------
      1         15           0        2.297967   -0.514589    0.352423
      2         15           0       -2.404191   -0.734604    0.060666
      3          6           0        3.232032    1.033782    0.442950
      4          6           0        3.594053    1.275736    1.726371
      5          6           0        3.192535    0.200735    2.686395
      6          6           0        2.551634   -0.844136    2.107892
      7          6           0        4.307920    2.507866    2.193661
      8          6           0        3.491188    0.308287    4.152164
      9          6           0       -3.568938    0.146609   -1.002857
     10          6           0       -4.344180   -0.738552   -1.674368
     11          6           0       -4.069499   -2.172460   -1.338169
     12          6           0       -3.087097   -2.342095   -0.422027
     13          6           0       -5.391224   -0.362827   -2.681966
     14          6           0       -4.847990   -3.283064   -1.977918
     15          1           0        3.423465    1.693539   -0.402817
     16          1           0        2.136899   -1.707340    2.626082
     17          1           0        5.240672    2.251758    2.722867
     18          1           0        4.550349    3.174194    1.354369
     19          1           0        3.682117    3.069089    2.908082
     20          1           0        3.200849    1.292512    4.555112
     21          1           0        2.966903   -0.471099    4.721315
     22          1           0        4.573650    0.194393    4.338779
     23          1           0       -3.595292    1.227301   -1.132599
     24          1           0       -2.717809   -3.293696   -0.042821
     25          1           0       -6.350882   -0.864597   -2.466864
     26          1           0       -5.560178    0.724097   -2.697947
     27          1           0       -5.086873   -0.681396   -3.696336
     28          1           0       -4.811100   -3.216173   -3.076891
     29          1           0       -4.463165   -4.266427   -1.675623
     30          1           0       -5.912118   -3.228641   -1.694705
     31         78           0       -0.043104   -0.520847   -0.049021
     32         50           0        0.012404    1.915269   -0.933762
     33         17           0        0.484149    3.656231    0.672915
     34         17           0       -1.800567    3.002723   -2.104073
     35         17           0        1.737175    2.336701   -2.595559
     36         17           0        0.098467   -2.850581    0.708385
     37          6           0       -2.890881   -0.408240    1.807328
     38          6           0       -2.314885   -1.174573    2.837893
     39          6           0       -3.802181    0.611512    2.128129
     40          6           0       -2.658847   -0.923931    4.168906
     41          1           0       -1.591605   -1.957444    2.597482
     42          6           0       -4.132964    0.862526    3.464964
     43          1           0       -4.257643    1.215558    1.341484
     44          6           0       -3.563288    0.096080    4.485725
     45          1           0       -2.209447   -1.526410    4.962499
     46          1           0       -4.838347    1.662284    3.704752
     47          1           0       -3.822240    0.296018    5.529235
     48          6           0        3.277647   -1.668837   -0.676476
     49          6           0        3.627984   -2.947838   -0.209891
     50          6           0        3.679427   -1.257672   -1.961124
     51          6           0        4.387219   -3.800804   -1.017433
     52          1           0        3.310055   -3.282691    0.779912
     53          6           0        4.439606   -2.113530   -2.760243
     54          1           0        3.398972   -0.268894   -2.340541
     55          6           0        4.796034   -3.383605   -2.291198
     56          1           0        4.660495   -4.792976   -0.647803
     57          1           0        4.755785   -1.783352   -3.755286
     58          1           0        5.393147   -4.051173   -2.916949
 ---------------------------------------------------------------------
 Rotational constants (GHZ):      0.0958450      0.0666009      0.0625866
 Leave Link  202 at Sat Aug 24 02:18:53 2019, MaxMem=   939524096 cpu:         0.1
 (Enter /scr/programas/g09/l301.exe)
 General basis read from cards:  (5D, 7F)
 Centers:      15     16     17     18     19     20     21     22     23     24
 Centers:      25     26     27     28     29     30     41     43     45     46
 Centers:      47     52     54     56     57     58
 S 5 1.00
     Exponent=  2.8295215633D+02 Coefficients=  4.3000000000D-04
     Exponent=  8.7062201949D+01 Coefficients=  5.1000000000D-04
     Exponent=  2.6788369830D+01 Coefficients=  6.1600000000D-03
     Exponent=  8.2425753324D+00 Coefficients=  1.3030000000D-02
     Exponent=  2.5361770254D+00 Coefficients=  9.9490000000D-02
 S 1 1.00
     Exponent=  7.8036216165D-01 Coefficients=  1.0000000000D+00
 S 1 1.00
     Exponent=  2.4011143435D-01 Coefficients=  1.0000000000D+00
 P 1 1.00
     Exponent=  8.8150000000D-01 Coefficients=  1.0000000000D+00
 P 1 1.00
     Exponent=  1.7989200000D-01 Coefficients=  1.0000000000D+00
 ****
 Centers:       3      4      5      6      7      8      9     10     11     12
 Centers:      13     14     37     38     39     40     42     44     48     49
 Centers:      50     51     53     55
 S 6 1.00
     Exponent=  8.8461235339D+03 Coefficients=  5.3000000000D-04
     Exponent=  2.9487078446D+03 Coefficients=  7.7000000000D-04
     Exponent=  9.8290261488D+02 Coefficients=  4.0500000000D-03
     Exponent=  3.2763420496D+02 Coefficients=  1.4030000000D-02
     Exponent=  1.0921140165D+02 Coefficients=  5.3450000000D-02
     Exponent=  3.6403800551D+01 Coefficients=  1.7027000000D-01
 S 1 1.00
     Exponent=  1.2134600184D+01 Coefficients=  1.0000000000D+00
 S 1 1.00
     Exponent=  4.0448667279D+00 Coefficients=  1.0000000000D+00
 S 1 1.00
     Exponent=  1.3482889093D+00 Coefficients=  1.0000000000D+00
 S 1 1.00
     Exponent=  4.4942963643D-01 Coefficients=  1.0000000000D+00
 S 1 1.00
     Exponent=  1.4980987881D-01 Coefficients=  1.0000000000D+00
 P 4 1.00
     Exponent=  3.7294093393D+01 Coefficients=  3.9600000000D-03
     Exponent=  1.1475105659D+01 Coefficients=  1.8890000000D-02
     Exponent=  3.5308017414D+00 Coefficients=  9.4610000000D-02
     Exponent=  1.0864005358D+00 Coefficients=  3.1889000000D-01
 P 1 1.00
     Exponent=  3.3427708794D-01 Coefficients=  1.0000000000D+00
 P 1 1.00
     Exponent=  1.0285448860D-01 Coefficients=  1.0000000000D+00
 D 1 1.00
     Exponent=  4.7750000000D-01 Coefficients=  1.0000000000D+00
 D 1 1.00
     Exponent=  1.1998000000D-01 Coefficients=  1.0000000000D+00
 ****
 Centers:       1      2
 S 7 1.00
     Exponent=  5.9538004301D+04 Coefficients=  9.5000000000D-04
     Exponent=  2.1650183382D+04 Coefficients=  6.1000000000D-04
     Exponent=  7.8727939572D+03 Coefficients=  3.7500000000D-03
     Exponent=  2.8628341663D+03 Coefficients=  9.6300000000D-03
     Exponent=  1.0410306059D+03 Coefficients=  3.2430000000D-02
     Exponent=  3.7855658397D+02 Coefficients=  9.9500000000D-02
     Exponent=  1.3765693962D+02 Coefficients=  2.6570000000D-01
 S 1 1.00
     Exponent=  5.0057068954D+01 Coefficients=  1.0000000000D+00
 S 1 1.00
     Exponent=  1.8202570529D+01 Coefficients=  1.0000000000D+00
 S 1 1.00
     Exponent=  6.6191165560D+00 Coefficients=  1.0000000000D+00
 S 1 1.00
     Exponent=  2.4069514749D+00 Coefficients=  1.0000000000D+00
 S 1 1.00
     Exponent=  8.7525508178D-01 Coefficients=  1.0000000000D+00
 S 1 1.00
     Exponent=  3.1827457519D-01 Coefficients=  1.0000000000D+00
 S 1 1.00
     Exponent=  1.1573620916D-01 Coefficients=  1.0000000000D+00
 S 1 1.00
     Exponent=  4.2085894240D-02 Coefficients=  1.0000000000D+00
 P 5 1.00
     Exponent=  4.8799672315D+02 Coefficients=  2.1600000000D-03
     Exponent=  1.6266557438D+02 Coefficients=  9.7900000000D-03
     Exponent=  5.4221858128D+01 Coefficients=  5.4850000000D-02
     Exponent=  1.8073952709D+01 Coefficients=  2.1770000000D-01
     Exponent=  6.0246509031D+00 Coefficients=  4.8978000000D-01
 P 1 1.00
     Exponent=  2.0082169677D+00 Coefficients=  1.0000000000D+00
 P 1 1.00
     Exponent=  6.6940565590D-01 Coefficients=  1.0000000000D+00
 P 1 1.00
     Exponent=  2.2313521863D-01 Coefficients=  1.0000000000D+00
 P 1 1.00
     Exponent=  7.4378406211D-02 Coefficients=  1.0000000000D+00
 P 1 1.00
     Exponent=  2.4792802070D-02 Coefficients=  1.0000000000D+00
 D 1 1.00
     Exponent=  3.5395000000D-01 Coefficients=  1.0000000000D+00
 D 1 1.00
     Exponent=  8.9098000000D-02 Coefficients=  1.0000000000D+00
 ****
 Centers:      33     34     35     36
 S 7 1.00
     Exponent=  7.7142817164D+04 Coefficients=  1.0600000000D-03
     Exponent=  2.8051933514D+04 Coefficients=  6.4000000000D-04
     Exponent=  1.0200703096D+04 Coefficients=  3.9600000000D-03
     Exponent=  3.7093465804D+03 Coefficients=  9.8300000000D-03
     Exponent=  1.3488533020D+03 Coefficients=  3.2690000000D-02
     Exponent=  4.9049210981D+02 Coefficients=  9.9520000000D-02
     Exponent=  1.7836076720D+02 Coefficients=  2.6555000000D-01
 S 1 1.00
     Exponent=  6.4858460801D+01 Coefficients=  1.0000000000D+00
 S 1 1.00
     Exponent=  2.3584894837D+01 Coefficients=  1.0000000000D+00
 S 1 1.00
     Exponent=  8.5763253951D+00 Coefficients=  1.0000000000D+00
 S 1 1.00
     Exponent=  3.1186637801D+00 Coefficients=  1.0000000000D+00
 S 1 1.00
     Exponent=  1.1340595564D+00 Coefficients=  1.0000000000D+00
 S 1 1.00
     Exponent=  4.1238529323D-01 Coefficients=  1.0000000000D+00
 S 1 1.00
     Exponent=  1.4995828845D-01 Coefficients=  1.0000000000D+00
 S 1 1.00
     Exponent=  5.4530286708D-02 Coefficients=  1.0000000000D+00
 P 5 1.00
     Exponent=  6.9498536057D+02 Coefficients=  2.0000000000D-03
     Exponent=  2.3166178686D+02 Coefficients=  8.9500000000D-03
     Exponent=  7.7220595619D+01 Coefficients=  5.1130000000D-02
     Exponent=  2.5740198540D+01 Coefficients=  2.1011000000D-01
     Exponent=  8.5800661799D+00 Coefficients=  4.9738000000D-01
 P 1 1.00
     Exponent=  2.8600220600D+00 Coefficients=  1.0000000000D+00
 P 1 1.00
     Exponent=  9.5334068665D-01 Coefficients=  1.0000000000D+00
 P 1 1.00
     Exponent=  3.1778022888D-01 Coefficients=  1.0000000000D+00
 P 1 1.00
     Exponent=  1.0592674296D-01 Coefficients=  1.0000000000D+00
 P 1 1.00
     Exponent=  3.5308914320D-02 Coefficients=  1.0000000000D+00
 D 1 1.00
     Exponent=  5.5696000000D-01 Coefficients=  1.0000000000D+00
 D 1 1.00
     Exponent=  1.5619100000D-01 Coefficients=  1.0000000000D+00
 ****
 Centers:      32
 S 8 1.00
     Exponent=  7.5448214551D+05 Coefficients=  4.4300000000D-03
     Exponent=  3.3532539800D+05 Coefficients=  1.9800000000D-03
     Exponent=  1.4903351022D+05 Coefficients=  9.0500000000D-03
     Exponent=  6.6237115655D+04 Coefficients=  4.8700000000D-03
     Exponent=  2.9438718069D+04 Coefficients=  2.0770000000D-02
     Exponent=  1.3083874697D+04 Coefficients=  3.2900000000D-02
     Exponent=  5.8150554210D+03 Coefficients=  7.7010000000D-02
     Exponent=  2.5844690760D+03 Coefficients=  1.5160000000D-01
 S 1 1.00
     Exponent=  1.1486529227D+03 Coefficients=  1.0000000000D+00
 S 1 1.00
     Exponent=  5.1051241008D+02 Coefficients=  1.0000000000D+00
 S 1 1.00
     Exponent=  2.2689440448D+02 Coefficients=  1.0000000000D+00
 S 1 1.00
     Exponent=  1.0084195755D+02 Coefficients=  1.0000000000D+00
 S 1 1.00
     Exponent=  4.4818647798D+01 Coefficients=  1.0000000000D+00
 S 1 1.00
     Exponent=  1.9919399021D+01 Coefficients=  1.0000000000D+00
 S 1 1.00
     Exponent=  8.8530662317D+00 Coefficients=  1.0000000000D+00
 S 1 1.00
     Exponent=  3.9346961030D+00 Coefficients=  1.0000000000D+00
 S 1 1.00
     Exponent=  1.7487538235D+00 Coefficients=  1.0000000000D+00
 S 1 1.00
     Exponent=  7.7722392158D-01 Coefficients=  1.0000000000D+00
 S 1 1.00
     Exponent=  3.4543285403D-01 Coefficients=  1.0000000000D+00
 S 1 1.00
     Exponent=  1.5352571290D-01 Coefficients=  1.0000000000D+00
 S 1 1.00
     Exponent=  6.8233650180D-02 Coefficients=  1.0000000000D+00
 S 1 1.00
     Exponent=  1.3478251887D-02 Coefficients=  1.0000000000D+00
 P 5 1.00
     Exponent=  1.0090658304D+04 Coefficients=  2.7500000000D-03
     Exponent=  4.0362633217D+03 Coefficients=  4.1800000000D-03
     Exponent=  1.6145053287D+03 Coefficients=  2.0890000000D-02
     Exponent=  6.4580213147D+02 Coefficients=  7.1370000000D-02
     Exponent=  2.5832085259D+02 Coefficients=  2.2613000000D-01
 P 1 1.00
     Exponent=  1.0332834104D+02 Coefficients=  1.0000000000D+00
 P 1 1.00
     Exponent=  4.1331336414D+01 Coefficients=  1.0000000000D+00
 P 1 1.00
     Exponent=  1.6532534566D+01 Coefficients=  1.0000000000D+00
 P 1 1.00
     Exponent=  6.6130138263D+00 Coefficients=  1.0000000000D+00
 P 1 1.00
     Exponent=  2.6452055305D+00 Coefficients=  1.0000000000D+00
 P 1 1.00
     Exponent=  1.0580822122D+00 Coefficients=  1.0000000000D+00
 P 1 1.00
     Exponent=  4.2323288488D-01 Coefficients=  1.0000000000D+00
 P 1 1.00
     Exponent=  1.6929315395D-01 Coefficients=  1.0000000000D+00
 P 1 1.00
     Exponent=  6.7717261581D-02 Coefficients=  1.0000000000D+00
 P 1 1.00
     Exponent=  2.7086904632D-02 Coefficients=  1.0000000000D+00
 P 1 1.00
     Exponent=  1.0834761853D-02 Coefficients=  1.0000000000D+00
 D 4 1.00
     Exponent=  5.5430250651D+02 Coefficients=  4.3700000000D-03
     Exponent=  2.0156454782D+02 Coefficients=  2.5110000000D-02
     Exponent=  7.3296199207D+01 Coefficients=  1.3316000000D-01
     Exponent=  2.6653163348D+01 Coefficients=  3.8900000000D-01
 D 1 1.00
     Exponent=  9.6920593993D+00 Coefficients=  1.0000000000D+00
 D 1 1.00
     Exponent=  3.5243852361D+00 Coefficients=  1.0000000000D+00
 D 1 1.00
     Exponent=  1.2815946313D+00 Coefficients=  1.0000000000D+00
 D 1 1.00
     Exponent=  4.6603441139D-01 Coefficients=  1.0000000000D+00
 D 1 1.00
     Exponent=  1.6946705869D-01 Coefficients=  1.0000000000D+00
 F 1 1.00
     Exponent=  1.3140000000D+00 Coefficients=  1.0000000000D+00
 F 1 1.00
     Exponent=  1.9993000000D-01 Coefficients=  1.0000000000D+00
 ****
 Centers:      31
 S 9 1.00
     Exponent=  2.1644816090D+06 Coefficients=  1.2320000000D-02
     Exponent=  1.0822408045D+06 Coefficients=  1.2970000000D-02
     Exponent=  5.4112040224D+05 Coefficients=  2.6370000000D-02
     Exponent=  2.7056020112D+05 Coefficients=  9.0400000000D-03
     Exponent=  1.3528010056D+05 Coefficients=  3.4980000000D-02
     Exponent=  6.7640050280D+04 Coefficients=  1.2220000000D-02
     Exponent=  3.3820025140D+04 Coefficients=  6.0520000000D-02
     Exponent=  1.6910012570D+04 Coefficients=  6.4930000000D-02
     Exponent=  8.4550062850D+03 Coefficients=  1.3819000000D-01
 S 1 1.00
     Exponent=  4.2275031425D+03 Coefficients=  1.0000000000D+00
 S 1 1.00
     Exponent=  2.1137515713D+03 Coefficients=  1.0000000000D+00
 S 1 1.00
     Exponent=  1.0568757856D+03 Coefficients=  1.0000000000D+00
 S 1 1.00
     Exponent=  5.2843789281D+02 Coefficients=  1.0000000000D+00
 S 1 1.00
     Exponent=  2.6421894641D+02 Coefficients=  1.0000000000D+00
 S 1 1.00
     Exponent=  1.3210947320D+02 Coefficients=  1.0000000000D+00
 S 1 1.00
     Exponent=  6.6054736602D+01 Coefficients=  1.0000000000D+00
 S 1 1.00
     Exponent=  3.3027368301D+01 Coefficients=  1.0000000000D+00
 S 1 1.00
     Exponent=  1.6513684150D+01 Coefficients=  1.0000000000D+00
 S 1 1.00
     Exponent=  8.2568420752D+00 Coefficients=  1.0000000000D+00
 S 1 1.00
     Exponent=  4.1284210376D+00 Coefficients=  1.0000000000D+00
 S 1 1.00
     Exponent=  2.0642105188D+00 Coefficients=  1.0000000000D+00
 S 1 1.00
     Exponent=  1.0321052594D+00 Coefficients=  1.0000000000D+00
 S 1 1.00
     Exponent=  5.1605262970D-01 Coefficients=  1.0000000000D+00
 S 1 1.00
     Exponent=  2.5802631485D-01 Coefficients=  1.0000000000D+00
 S 1 1.00
     Exponent=  1.2901315743D-01 Coefficients=  1.0000000000D+00
 S 1 1.00
     Exponent=  6.4506578713D-02 Coefficients=  1.0000000000D+00
 P 7 1.00
     Exponent=  3.2357915258D+04 Coefficients=  5.0200000000D-03
     Exponent=  1.4381295670D+04 Coefficients=  2.0200000000D-03
     Exponent=  6.3916869645D+03 Coefficients=  1.8070000000D-02
     Exponent=  2.8407497620D+03 Coefficients=  3.6620000000D-02
     Exponent=  1.2625554498D+03 Coefficients=  1.1172000000D-01
     Exponent=  5.6113575545D+02 Coefficients=  2.5586000000D-01
     Exponent=  2.4939366909D+02 Coefficients=  4.2608000000D-01
 P 1 1.00
     Exponent=  1.1084163071D+02 Coefficients=  1.0000000000D+00
 P 1 1.00
     Exponent=  4.9262946981D+01 Coefficients=  1.0000000000D+00
 P 1 1.00
     Exponent=  2.1894643103D+01 Coefficients=  1.0000000000D+00
 P 1 1.00
     Exponent=  9.7309524900D+00 Coefficients=  1.0000000000D+00
 P 1 1.00
     Exponent=  4.3248677733D+00 Coefficients=  1.0000000000D+00
 P 1 1.00
     Exponent=  1.9221634548D+00 Coefficients=  1.0000000000D+00
 P 1 1.00
     Exponent=  8.5429486881D-01 Coefficients=  1.0000000000D+00
 P 1 1.00
     Exponent=  3.7968660836D-01 Coefficients=  1.0000000000D+00
 P 1 1.00
     Exponent=  1.6874960372D-01 Coefficients=  1.0000000000D+00
 P 1 1.00
     Exponent=  7.4999823874D-02 Coefficients=  1.0000000000D+00
 P 1 1.00
     Exponent=  3.3333255055D-02 Coefficients=  1.0000000000D+00
 D 5 1.00
     Exponent=  1.9119003508D+03 Coefficients=  4.3300000000D-03
     Exponent=  7.6476014031D+02 Coefficients=  1.7780000000D-02
     Exponent=  3.0590405613D+02 Coefficients=  8.9710000000D-02
     Exponent=  1.2236162245D+02 Coefficients=  3.1123000000D-01
     Exponent=  4.8944648980D+01 Coefficients=  5.3206000000D-01
 D 1 1.00
     Exponent=  1.9577859592D+01 Coefficients=  1.0000000000D+00
 D 1 1.00
     Exponent=  7.8311438368D+00 Coefficients=  1.0000000000D+00
 D 1 1.00
     Exponent=  3.1324575347D+00 Coefficients=  1.0000000000D+00
 D 1 1.00
     Exponent=  1.2529830139D+00 Coefficients=  1.0000000000D+00
 D 1 1.00
     Exponent=  5.0119320556D-01 Coefficients=  1.0000000000D+00
 D 1 1.00
     Exponent=  2.0047728222D-01 Coefficients=  1.0000000000D+00
 D 1 1.00
     Exponent=  8.0190912889D-02 Coefficients=  1.0000000000D+00
 D 1 1.00
     Exponent=  3.2076365156D-02 Coefficients=  1.0000000000D+00
 F 4 1.00
     Exponent=  8.2289680979D+01 Coefficients=  6.1870000000D-02
     Exponent=  2.9923520356D+01 Coefficients=  2.4823000000D-01
     Exponent=  1.0881280130D+01 Coefficients=  4.9956000000D-01
     Exponent=  3.9568291380D+00 Coefficients=  4.0380000000D-01
 F 1 1.00
     Exponent=  1.4388469593D+00 Coefficients=  1.0000000000D+00
 F 1 1.00
     Exponent=  5.2321707610D-01 Coefficients=  1.0000000000D+00
 G 1 1.00
     Exponent=  2.6700000000D+00 Coefficients=  1.0000000000D+00
 G 1 1.00
     Exponent=  9.0960000000D-01 Coefficients=  1.0000000000D+00
 ****
 Ernie: Thresh=  0.10000D-02 Tol=  0.10000D-05 Strict=F.
 There are  1391 symmetry adapted cartesian basis functions of A   symmetry.
 There are  1289 symmetry adapted basis functions of A   symmetry.
  1289 basis functions,  2056 primitive gaussians,  1391 cartesian basis functions
   198 alpha electrons      198 beta electrons
       nuclear repulsion energy      9092.5423522064 Hartrees.
 IExCor= 1009 DFT=T Ex=PBE Corr=PBE ExCW=0 ScaHFX=  0.000000
 ScaDFX=  1.000000  1.000000  1.000000  1.000000 ScalE2=  1.000000  1.000000
 IRadAn=      0 IRanWt=     -1 IRanGd=            0 ICorTp=0 IEmpDi=  4
 NAtoms=   58 NActive=   58 NUniq=   58 SFac= 1.00D+00 NAtFMM=   60 NAOKFM=F Big=F
 Integral buffers will be    131072 words long.
 Raffenetti 2 integral format.
 Two-electron integral symmetry is turned on.
 ------------------------------------------------------------------------------
 Polarizable Continuum Model (PCM)
 =================================
 Model                : PCM (using non-symmetric T matrix).
 Atomic radii         : UFF (Universal Force Field).
 Polarization charges : Total charges.
 Charge compensation  : None.
 Solution method      : On-the-fly selection.
 Cavity type          : Scaled VdW (van der Waals Surface) (Alpha=1.100).
 Cavity algorithm     : GePol (No added spheres)
                        Default sphere list used, NSphG=   58.
                        Lebedev-Laikov grids with approx.  5.0 points / Ang**2.
                        Smoothing algorithm: Karplus/York (Gamma=1.0000).
                        Polarization charges: spherical gaussians, with
                                              point-specific exponents (IZeta= 3).
                        Self-potential: point-specific (ISelfS= 7).
                        Self-field    : sphere-specific E.n sum rule (ISelfD= 2).
 Solvent              : Dichloromethane, Eps=   8.930000 Eps(inf)=   2.028346
 ------------------------------------------------------------------------------
 GePol: Number of generator spheres                  =      58
 GePol: Total number of spheres                      =      58
 GePol: Number of exposed spheres                    =      58 (100.00%)
 GePol: Number of points                             =    4643
 GePol: Average weight of points                     =       0.14
 GePol: Minimum weight of points                     =   0.95D-11
 GePol: Maximum weight of points                     =    0.21838
 GePol: Number of points with low weight             =     285
 GePol: Fraction of low-weight points (<1% of avg)   =       6.14%
 GePol: Cavity surface area                          =    633.995 Ang**2
 GePol: Cavity volume                                =    731.848 Ang**3
 Leave Link  301 at Sat Aug 24 02:18:53 2019, MaxMem=   939524096 cpu:         1.4
 (Enter /scr/programas/g09/l302.exe)
 NPDir=0 NMtPBC=     1 NCelOv=     1 NCel=       1 NClECP=     1 NCelD=      1
         NCelK=      1 NCelE2=     1 NClLst=     1 CellRange=     0.0.
 One-electron integrals computed using PRISM.
 NBasis=  1289 RedAO= T EigKep=  1.91D-06  NBF=  1289
 NBsUse=  1289 1.00D-06 EigRej= -1.00D+00 NBFU=  1289
 Precomputing XC quadrature grid using
 IXCGrd= 4 IRadAn=           0 IRanWt=          -1 IRanGd=           0 AccXCQ= 0.00D+00.
 Defaulting to unpruned grid for atomic number  78.
 Generated NRdTot=       0 NPtTot=           0 NUsed=           0 NTot=          32
 NSgBfM=  1204  1204  1204  1204  1204 MxSgAt=    58 MxSgA2=    58.
 Leave Link  302 at Sat Aug 24 02:19:03 2019, MaxMem=   939524096 cpu:        36.3
 (Enter /scr/programas/g09/l308.exe)
 Leave Link  308 at Sat Aug 24 02:19:04 2019, MaxMem=   939524096 cpu:         3.4
 (Enter /scr/programas/g09/l303.exe)
 DipDrv:  MaxL=1.
 Leave Link  303 at Sat Aug 24 02:19:05 2019, MaxMem=   939524096 cpu:         2.4
 (Enter /scr/programas/g09/l401.exe)
 ExpMin= 1.08D-02 ExpMax= 2.16D+06 ExpMxC= 2.16D+06 IAcc=4 IRadAn=    199590 AccDes= 0.00D+00
 Harris functional with IExCor= 1009 and IRadAn=  199590 diagonalized for initial guess.
 HarFok:  IExCor= 1009 AccDes= 0.00D+00 IRadAn=    199590 IDoV= 1 UseB2=F ITyADJ=14
 ICtDFT=  3500011 ScaDFX=  1.000000  1.000000  1.000000  1.000000
 FoFCou: FMM=F IPFlag=           0 FMFlag=      100000 FMFlg1=           0
         NFxFlg=           0 DoJE=T BraDBF=F KetDBF=T FulRan=T
         wScrn=  0.000000 ICntrl=     500 IOpCl=  0 I1Cent=   200000004 NGrid=           0
         NMat0=    1 NMatS0=      1 NMatT0=    0 NMatD0=    1 NMtDS0=    0 NMtDT0=    0
 Petite list used in FoFCou.
 Harris En= -26556.9668759167    
 JPrj=0 DoOrth=F DoCkMO=F.
 Leave Link  401 at Sat Aug 24 02:24:08 2019, MaxMem=   939524096 cpu:      1201.6
 (Enter /scr/programas/g09/l502.exe)
 Closed shell SCF:
 Using DIIS extrapolation, IDIIS=  1040.
 Integral symmetry usage will be decided dynamically.
 IVT=     6077341 IEndB=     6077341 NGot=   939524096 MDV=   935634028
 LenX=   935634028 LenY=   933697756
 Requested convergence on RMS density matrix=1.00D-04 within 500 cycles.
 Requested convergence on MAX density matrix=1.00D-02.
 Requested convergence on             energy=1.00D-02.
 No special actions if energy rises.
 Fock matrices will be formed incrementally for  20 cycles.

 Cycle   1  Pass 1  IDiag  1:
 FoFJK:  IHMeth= 1 ICntrl=     500 DoSepK=F KAlg= 0 I1Cent=   0 FoldK=F
 IRaf= 620000000 NMat=   1 IRICut=       1 DoRegI=T DoRafI=F ISym2E= 0.
 FoFCou: FMM=F IPFlag=           0 FMFlag=      100000 FMFlg1=           0
         NFxFlg=           0 DoJE=T BraDBF=F KetDBF=F FulRan=T
         wScrn=  0.000000 ICntrl=     500 IOpCl=  0 I1Cent=           0 NGrid=           0
         NMat0=    1 NMatS0=      1 NMatT0=    0 NMatD0=    1 NMtDS0=    0 NMtDT0=    0
 Symmetry not used in FoFCou.
 Defaulting to unpruned grid for atomic number  78.
 Defaulting to unpruned grid for atomic number  78.
 Defaulting to unpruned grid for atomic number  78.
 Defaulting to unpruned grid for atomic number  78.
 Inv3:  Mode=1 IEnd=    64672347.
 Iteration    1 A*A^-1 deviation from unit magnitude is 9.99D-15 for   4451.
 Iteration    1 A*A^-1 deviation from orthogonality  is 1.01D-14 for   4574   4418.
 Iteration    1 A^-1*A deviation from unit magnitude is 1.19D-14 for     77.
 Iteration    1 A^-1*A deviation from orthogonality  is 1.28D-10 for   3515   3477.
 Iteration    2 A*A^-1 deviation from unit magnitude is 1.67D-14 for     77.
 Iteration    2 A*A^-1 deviation from orthogonality  is 1.05D-14 for   1897     30.
 Iteration    2 A^-1*A deviation from unit magnitude is 1.78D-15 for    210.
 Iteration    2 A^-1*A deviation from orthogonality  is 8.35D-16 for   1806   1750.
 E= -26535.6803436533    
 DIIS: error= 2.07D-01 at cycle   1 NSaved=   1.
 NSaved= 1 IEnMin= 1 EnMin= -26535.6803436533     IErMin= 1 ErrMin= 2.07D-01
 ErrMax= 2.07D-01  0.00D+00 EMaxC= 1.00D-01 BMatC= 3.38D+02 BMatP= 3.38D+02
 IDIUse=3 WtCom= 0.00D+00 WtEn= 1.00D+00
 Coeff-Com:  0.100D+01
 Coeff-En:   0.100D+01
 Coeff:      0.100D+01
 Gap=     0.587 Goal=   None    Shift=    0.000
 GapD=    0.587 DampG=2.000 DampE=0.125 DampFc=0.2500 IDamp=-1.
 Damping current iteration by 2.50D-01
 RMSDP=2.41D-02 MaxDP=3.60D+00              OVMax= 7.96D-01

 Cycle   2  Pass 1  IDiag  1:
 RMSU=  5.99D-03    CP:  1.03D+00
 E= -26537.3586849363     Delta-E=       -1.678341282990 Rises=F Damp=T
 DIIS: error= 1.52D-01 at cycle   2 NSaved=   2.
 NSaved= 2 IEnMin= 2 EnMin= -26537.3586849363     IErMin= 2 ErrMin= 1.52D-01
 ErrMax= 1.52D-01  0.00D+00 EMaxC= 1.00D-01 BMatC= 1.61D+02 BMatP= 3.38D+02
 IDIUse=3 WtCom= 0.00D+00 WtEn= 1.00D+00
 Coeff-Com: -0.184D+01 0.284D+01
 Coeff-En:   0.282D+00 0.718D+00
 Coeff:      0.282D+00 0.718D+00
 Gap=     0.026 Goal=   None    Shift=    0.000
 RMSDP=6.17D-03 MaxDP=5.81D-01 DE=-1.68D+00 OVMax= 8.97D-01

 Cycle   3  Pass 1  IDiag  1:
 RMSU=  4.12D-03    CP:  9.21D-01  2.93D-01
 E= -26538.9468932832     Delta-E=       -1.588208346948 Rises=F Damp=F
 DIIS: error= 7.98D-02 at cycle   3 NSaved=   3.
 NSaved= 3 IEnMin= 3 EnMin= -26538.9468932832     IErMin= 3 ErrMin= 7.98D-02
 ErrMax= 7.98D-02  0.00D+00 EMaxC= 1.00D-01 BMatC= 2.00D+01 BMatP= 1.61D+02
 IDIUse=3 WtCom= 2.02D-01 WtEn= 7.98D-01
 EnCoef did   100 forward-backward iterations
 Coeff-Com:  0.641D+00-0.677D+00 0.104D+01
 Coeff-En:   0.372D+00 0.689D-02 0.621D+00
 Coeff:      0.426D+00-0.131D+00 0.705D+00
 Gap=     0.057 Goal=   None    Shift=    0.000
 RMSDP=5.60D-03 MaxDP=8.22D-01 DE=-1.59D+00 OVMax= 8.26D-01

 Cycle   4  Pass 1  IDiag  1:
 RMSU=  4.95D-03    CP:  8.96D-01  3.25D-01  3.73D-01
 E= -26535.8456742722     Delta-E=        3.101219011056 Rises=F Damp=F
 DIIS: error= 5.17D-02 at cycle   4 NSaved=   4.
 NSaved= 4 IEnMin= 3 EnMin= -26538.9468932832     IErMin= 4 ErrMin= 5.17D-02
 ErrMax= 5.17D-02  0.00D+00 EMaxC= 1.00D-01 BMatC= 7.80D+00 BMatP= 2.00D+01
 IDIUse=3 WtCom= 4.83D-01 WtEn= 5.17D-01
 EnCoef did     9 forward-backward iterations
 Coeff-Com:  0.232D+00-0.240D+00 0.488D+00 0.520D+00
 Coeff-En:   0.202D+00 0.000D+00 0.562D+00 0.236D+00
 Coeff:      0.217D+00-0.116D+00 0.526D+00 0.373D+00
 Gap=    -0.267 Goal=   None    Shift=    0.000
 RMSDP=5.48D-03 MaxDP=9.12D-01 DE= 3.10D+00 OVMax= 5.18D-01

 Cycle   5  Pass 1  IDiag  1:
 RMSU=  1.75D-03    CP:  9.35D-01  1.72D-01  5.41D-01 -1.47D-02
 E= -26541.8607775471     Delta-E=       -6.015103274971 Rises=F Damp=F
 DIIS: error= 1.24D-02 at cycle   5 NSaved=   5.
 NSaved= 5 IEnMin= 5 EnMin= -26541.8607775471     IErMin= 5 ErrMin= 1.24D-02
 ErrMax= 1.24D-02  0.00D+00 EMaxC= 1.00D-01 BMatC= 1.04D+00 BMatP= 7.80D+00
 IDIUse=3 WtCom= 8.76D-01 WtEn= 1.24D-01
 Coeff-Com: -0.709D-01 0.114D+00 0.962D-01 0.236D+00 0.624D+00
 Coeff-En:   0.000D+00 0.000D+00 0.000D+00 0.179D+00 0.821D+00
 Coeff:     -0.622D-01 0.100D+00 0.843D-01 0.229D+00 0.649D+00
 Gap=     0.131 Goal=   None    Shift=    0.000
 RMSDP=2.48D-03 MaxDP=2.44D-01 DE=-6.02D+00 OVMax= 4.10D-01

 Cycle   6  Pass 1  IDiag  1:
 RMSU=  1.52D-03    CP:  9.53D-01  9.53D-02  4.95D-01  1.30D-01  1.28D-02
 E= -26542.5345792304     Delta-E=       -0.673801683275 Rises=F Damp=F
 DIIS: error= 6.03D-03 at cycle   6 NSaved=   6.
 NSaved= 6 IEnMin= 6 EnMin= -26542.5345792304     IErMin= 6 ErrMin= 6.03D-03
 ErrMax= 6.03D-03  0.00D+00 EMaxC= 1.00D-01 BMatC= 3.21D-01 BMatP= 1.04D+00
 IDIUse=3 WtCom= 9.40D-01 WtEn= 6.03D-02
 Coeff-Com: -0.964D-01 0.135D+00-0.245D-02 0.724D-01 0.373D+00 0.518D+00
 Coeff-En:   0.000D+00 0.000D+00 0.000D+00 0.000D+00 0.254D+00 0.746D+00
 Coeff:     -0.906D-01 0.127D+00-0.230D-02 0.680D-01 0.366D+00 0.531D+00
 Gap=     0.144 Goal=   None    Shift=    0.000
 RMSDP=2.02D-03 MaxDP=1.78D-01 DE=-6.74D-01 OVMax= 2.06D-01

 Cycle   7  Pass 1  IDiag  1:
 RMSU=  1.12D-03    CP:  9.01D-01  1.46D-01  5.76D-01  2.55D-01  3.37D-01
                    CP:  2.70D-01
 E= -26542.7674827163     Delta-E=       -0.232903485936 Rises=F Damp=F
 DIIS: error= 3.42D-03 at cycle   7 NSaved=   7.
 NSaved= 7 IEnMin= 7 EnMin= -26542.7674827163     IErMin= 7 ErrMin= 3.42D-03
 ErrMax= 3.42D-03  0.00D+00 EMaxC= 1.00D-01 BMatC= 9.80D-02 BMatP= 3.21D-01
 IDIUse=3 WtCom= 9.66D-01 WtEn= 3.42D-02
 Coeff-Com: -0.468D-01 0.640D-01-0.130D-01 0.724D-02 0.134D+00 0.377D+00
 Coeff-Com:  0.478D+00
 Coeff-En:   0.000D+00 0.000D+00 0.000D+00 0.000D+00 0.000D+00 0.279D+00
 Coeff-En:   0.721D+00
 Coeff:     -0.452D-01 0.618D-01-0.125D-01 0.699D-02 0.129D+00 0.374D+00
 Coeff:      0.486D+00
 Gap=     0.076 Goal=   None    Shift=    0.000
 RMSDP=7.79D-04 MaxDP=4.70D-02 DE=-2.33D-01 OVMax= 1.19D-01

 Cycle   8  Pass 1  IDiag  1:
 RMSU=  5.45D-04    CP:  9.05D-01  1.62D-01  5.93D-01  2.32D-01  3.29D-01
                    CP:  4.23D-01  5.76D-01
 E= -26542.8499968970     Delta-E=       -0.082514180656 Rises=F Damp=F
 DIIS: error= 1.55D-03 at cycle   8 NSaved=   8.
 NSaved= 8 IEnMin= 8 EnMin= -26542.8499968970     IErMin= 8 ErrMin= 1.55D-03
 ErrMax= 1.55D-03  0.00D+00 EMaxC= 1.00D-01 BMatC= 2.54D-02 BMatP= 9.80D-02
 IDIUse=3 WtCom= 9.84D-01 WtEn= 1.55D-02
 Coeff-Com: -0.502D-02 0.639D-02-0.454D-02 0.801D-03 0.373D-01 0.173D+00
 Coeff-Com:  0.344D+00 0.448D+00
 Coeff-En:   0.000D+00 0.000D+00 0.000D+00 0.000D+00 0.000D+00 0.000D+00
 Coeff-En:   0.217D+00 0.783D+00
 Coeff:     -0.494D-02 0.629D-02-0.447D-02 0.788D-03 0.367D-01 0.170D+00
 Coeff:      0.342D+00 0.453D+00
 Gap=     0.091 Goal=   None    Shift=    0.000
 RMSDP=4.10D-04 MaxDP=5.09D-02 DE=-8.25D-02 OVMax= 3.69D-02

 Cycle   9  Pass 1  IDiag  1:
 RMSU=  1.93D-04    CP:  9.14D-01  1.52D-01  5.74D-01  2.24D-01  3.08D-01
                    CP:  4.68D-01  6.18D-01  4.41D-01
 E= -26542.8729943831     Delta-E=       -0.022997486150 Rises=F Damp=F
 DIIS: error= 5.47D-04 at cycle   9 NSaved=   9.
 NSaved= 9 IEnMin= 9 EnMin= -26542.8729943831     IErMin= 9 ErrMin= 5.47D-04
 ErrMax= 5.47D-04  0.00D+00 EMaxC= 1.00D-01 BMatC= 2.00D-03 BMatP= 2.54D-02
 IDIUse=3 WtCom= 9.95D-01 WtEn= 5.47D-03
 Coeff-Com:  0.134D-02-0.208D-02-0.104D-02 0.133D-03 0.135D-01 0.800D-01
 Coeff-Com:  0.181D+00 0.291D+00 0.436D+00
 Coeff-En:   0.000D+00 0.000D+00 0.000D+00 0.000D+00 0.000D+00 0.000D+00
 Coeff-En:   0.000D+00 0.402D-01 0.960D+00
 Coeff:      0.133D-02-0.207D-02-0.103D-02 0.133D-03 0.135D-01 0.796D-01
 Coeff:      0.180D+00 0.290D+00 0.439D+00
 Gap=     0.087 Goal=   None    Shift=    0.000
 RMSDP=1.42D-04 MaxDP=1.69D-02 DE=-2.30D-02 OVMax= 1.63D-02

 Cycle  10  Pass 1  IDiag  1:
 RMSU=  7.25D-05    CP:  9.12D-01  1.51D-01  5.74D-01  2.24D-01  3.17D-01
                    CP:  4.52D-01  6.21D-01  5.26D-01  4.70D-01
 E= -26542.8748151373     Delta-E=       -0.001820754158 Rises=F Damp=F
 DIIS: error= 2.61D-04 at cycle  10 NSaved=  10.
 NSaved=10 IEnMin=10 EnMin= -26542.8748151373     IErMin=10 ErrMin= 2.61D-04
 ErrMax= 2.61D-04  0.00D+00 EMaxC= 1.00D-01 BMatC= 3.84D-04 BMatP= 2.00D-03
 IDIUse=3 WtCom= 9.97D-01 WtEn= 2.61D-03
 Coeff-Com:  0.348D-03-0.508D-03 0.965D-04-0.735D-03 0.255D-02 0.259D-01
 Coeff-Com:  0.640D-01 0.112D+00 0.293D+00 0.503D+00
 Coeff-En:   0.000D+00 0.000D+00 0.000D+00 0.000D+00 0.000D+00 0.000D+00
 Coeff-En:   0.000D+00 0.000D+00 0.173D+00 0.827D+00
 Coeff:      0.347D-03-0.507D-03 0.963D-04-0.733D-03 0.254D-02 0.259D-01
 Coeff:      0.638D-01 0.112D+00 0.293D+00 0.503D+00
 Gap=     0.087 Goal=   None    Shift=    0.000
 RMSDP=4.92D-05 MaxDP=3.64D-03 DE=-1.82D-03 OVMax= 6.29D-03

 Error on total polarization charges =  0.02501
 SCF Done:  E(RPBE-PBE) =  -26542.8748151     A.U. after   10 cycles
            NFock= 10  Conv=0.49D-04     -V/T= 2.0155
 KE= 2.613861816444D+04 PE=-8.099007243201D+04 EE= 1.921603710022D+04
 Leave Link  502 at Sat Aug 24 04:08:57 2019, MaxMem=   939524096 cpu:     24954.1
 (Enter /scr/programas/g09/l801.exe)
 Range of M.O.s used for correlation:     1  1289
 NBasis=  1289 NAE=   198 NBE=   198 NFC=     0 NFV=     0
 NROrb=   1289 NOA=   198 NOB=   198 NVA=  1091 NVB=  1091

 **** Warning!!: The largest alpha MO coefficient is  0.69691268D+02


 **** Warning!!: The smallest alpha delta epsilon is  0.87210940D-01

 Leave Link  801 at Sat Aug 24 04:08:58 2019, MaxMem=   939524096 cpu:         0.2
 (Enter /scr/programas/g09/l1002.exe)
 Minotr:  Closed shell wavefunction.
 NEqPCM:  Using equilibrium solvation (IEInf=0, Eps=   8.9300, EpsInf=   2.0283)
          Direct CPHF calculation.
          Differentiating once with respect to magnetic field using GIAOs.
          Electric field/nuclear overlap derivatives assumed to be zero.
          Requested convergence is 1.0D-08 RMS, and 1.0D-07 maximum.
          Secondary convergence is 1.0D-12 RMS, and 1.0D-12 maximum.
          NewPWx=T KeepS1=F KeepF1=F KeepIn=T MapXYZ=F SortEE=F KeepMc=T.
          MDV=     939522339 using IRadAn=       2.
 Defaulting to unpruned grid for atomic number  78.
 Generate precomputed XC quadrature information.
          Solving linear equations simultaneously, MaxMat=       0.
 FoFJK:  IHMeth= 1 ICntrl=    6127 DoSepK=F KAlg= 0 I1Cent=   0 FoldK=F
 IRaf=         1 NMat=   1 IRICut=       1 DoRegI=T DoRafI=F ISym2E= 0.
 Defaulting to unpruned grid for atomic number  78.
 Defaulting to unpruned grid for atomic number  78.
 Defaulting to unpruned grid for atomic number  78.
 Defaulting to unpruned grid for atomic number  78.
          There are     3 degrees of freedom in the 1st order CPHF.  IDoFFX=0 NUNeed=     3.
      3 vectors produced by pass  0 Test12= 7.20D-12 3.33D-08 XBig12= 5.14D+02 2.58D+00.
 AX will form     3 AO Fock derivatives at one time.
 InvSVY:  IOpt=1 It=  1 EMax= 0.00D+00
 Solved reduced A of dimension     3 with     3 vectors.
 Calculating GIAO nuclear magnetic shielding tensors.
 SCF GIAO Magnetic shielding tensor (ppm):
      1  P    Isotropic =   256.3189   Anisotropy =    52.8883
   XX=   247.8736   YX=   -24.7796   ZX=    -7.3892
   XY=    25.0992   YY=   236.7386   ZY=    -6.8674
   XZ=    20.9872   YZ=   -29.9877   ZZ=   284.3445
   Eigenvalues:   230.1158   247.2632   291.5777
      2  P    Isotropic =   262.1668   Anisotropy =    62.7716
   XX=   283.6232   YX=   -25.8841   ZX=   -12.6061
   XY=   -11.3618   YY=   271.7949   ZY=   -21.1332
   XZ=    37.1431   YZ=   -19.6128   ZZ=   231.0823
   Eigenvalues:   222.3055   260.1804   304.0145
      3  C    Isotropic =    46.2023   Anisotropy =   124.5099
   XX=   102.1325   YX=   -58.1526   ZX=    11.2787
   XY=   -45.5782   YY=    23.7592   ZY=    20.9415
   XZ=     2.0576   YZ=    57.5443   ZZ=    12.7153
   Eigenvalues:   -33.8179    43.2159   129.2089
      4  C    Isotropic =    20.0836   Anisotropy =   145.9139
   XX=    74.0345   YX=   -81.5256   ZX=    -3.6524
   XY=   -66.9275   YY=   -18.3256   ZY=    29.3641
   XZ=     7.4736   YZ=    39.1542   ZZ=     4.5419
   Eigenvalues:   -72.1859    15.0772   117.3595
      5  C    Isotropic =    25.1594   Anisotropy =   172.8664
   XX=   103.5892   YX=   -54.4708   ZX=   -13.5931
   XY=   -61.1452   YY=    17.1177   ZY=    60.6355
   XZ=   -16.8011   YZ=    44.3655   ZZ=   -45.2288
   Eigenvalues:   -76.6589    11.7333   140.4036
      6  C    Isotropic =    47.1381   Anisotropy =   106.0648
   XX=   107.1379   YX=   -21.5624   ZX=     5.1438
   XY=   -40.2514   YY=    28.2013   ZY=    54.4136
   XZ=    18.6310   YZ=    27.6071   ZZ=     6.0752
   Eigenvalues:   -31.2383    54.8048   117.8480
      7  C    Isotropic =   163.2266   Anisotropy =    27.0850
   XX=   166.9555   YX=     9.2874   ZX=     6.8410
   XY=     4.6192   YY=   175.2324   ZY=     6.6583
   XZ=     4.2237   YZ=     6.3808   ZZ=   147.4920
   Eigenvalues:   145.2686   163.1280   181.2833
      8  C    Isotropic =   164.6212   Anisotropy =    31.1592
   XX=   157.6475   YX=    -1.2860   ZX=     4.2627
   XY=    -3.7855   YY=   151.9536   ZY=     0.2822
   XZ=     6.9359   YZ=     0.2747   ZZ=   184.2624
   Eigenvalues:   150.8192   157.6503   185.3940
      9  C    Isotropic =    53.8729   Anisotropy =   127.7059
   XX=    91.6646   YX=    26.5350   ZX=   -51.8088
   XY=    24.5928   YY=   -14.2157   ZY=    29.2064
   XZ=   -49.5210   YZ=     6.8598   ZZ=    84.1697
   Eigenvalues:   -28.7015    51.3099   139.0101
     10  C    Isotropic =    19.0941   Anisotropy =   150.5155
   XX=    47.7913   YX=    23.4208   ZX=   -71.0778
   XY=    36.1954   YY=   -52.0141   ZY=    40.1344
   XZ=   -57.6887   YZ=    20.4082   ZZ=    61.5050
   Eigenvalues:   -78.3824    16.2269   119.4377
     11  C    Isotropic =    23.7524   Anisotropy =   159.2345
   XX=    69.5325   YX=    -6.4522   ZX=   -54.2076
   XY=   -12.5826   YY=   -75.2755   ZY=     3.6317
   XZ=   -56.6570   YZ=    19.4135   ZZ=    77.0002
   Eigenvalues:   -76.3688    17.7173   129.9087
     12  C    Isotropic =    51.8412   Anisotropy =   115.9131
   XX=    95.4562   YX=     3.0937   ZX=   -27.9658
   XY=    -4.5741   YY=   -29.1365   ZY=     8.9047
   XZ=   -43.5932   YZ=    24.0242   ZZ=    89.2040
   Eigenvalues:   -31.5289    57.9360   129.1167
     13  C    Isotropic =   162.9977   Anisotropy =    30.4222
   XX=   170.2826   YX=    -7.3515   ZX=    10.0097
   XY=    -7.4509   YY=   150.2421   ZY=    -8.4273
   XZ=    11.1261   YZ=    -6.3103   ZZ=   168.4684
   Eigenvalues:   146.9320   158.7819   183.2792
     14  C    Isotropic =   164.0261   Anisotropy =    31.7564
   XX=   162.0099   YX=    11.2915   ZX=     3.9261
   XY=    13.6266   YY=   172.0480   ZY=    11.8995
   XZ=     1.5574   YZ=    11.4840   ZZ=   158.0203
   Eigenvalues:   149.4999   157.3814   185.1970
     15  H    Isotropic =    24.1199   Anisotropy =     6.7575
   XX=    27.2962   YX=     1.3321   ZX=     3.8603
   XY=    -0.1094   YY=    22.5704   ZY=     0.4968
   XZ=     1.5174   YZ=     1.0215   ZZ=    22.4932
   Eigenvalues:    21.1414    22.5934    28.6249
     16  H    Isotropic =    24.0815   Anisotropy =     9.7531
   XX=    23.6218   YX=     1.0779   ZX=     3.3160
   XY=    -0.5319   YY=    21.1438   ZY=    -0.1720
   XZ=     5.9818   YZ=    -0.2776   ZZ=    27.4789
   Eigenvalues:    20.3594    21.3015    30.5836
     17  H    Isotropic =    29.1375   Anisotropy =    10.2335
   XX=    33.1286   YX=     2.0576   ZX=     5.4430
   XY=     1.8432   YY=    26.7340   ZY=    -0.1030
   XZ=     3.7617   YZ=    -0.8274   ZZ=    27.5499
   Eigenvalues:    24.1748    27.2778    35.9598
     18  H    Isotropic =    29.2603   Anisotropy =     6.1953
   XX=    28.2343   YX=     4.1671   ZX=     0.5964
   XY=     3.8000   YY=    30.0133   ZY=    -2.7525
   XZ=     1.1250   YZ=    -0.6873   ZZ=    29.5332
   Eigenvalues:    24.4347    29.9556    33.3905
     19  H    Isotropic =    29.4036   Anisotropy =     6.4363
   XX=    27.2458   YX=    -0.4723   ZX=    -0.7411
   XY=    -0.1355   YY=    30.4531   ZY=     4.0732
   XZ=     0.1610   YZ=     2.2958   ZZ=    30.5119
   Eigenvalues:    27.2168    27.2996    33.6945
     20  H    Isotropic =    29.1915   Anisotropy =     6.5107
   XX=    25.4057   YX=    -0.5131   ZX=    -0.6477
   XY=     0.2937   YY=    30.6036   ZY=     1.8574
   XZ=     0.7158   YZ=     2.9420   ZZ=    31.5650
   Eigenvalues:    25.4020    28.6404    33.5319
     21  H    Isotropic =    28.9427   Anisotropy =     6.8185
   XX=    26.6164   YX=     2.7608   ZX=     1.0238
   XY=     3.4518   YY=    27.6625   ZY=    -0.9047
   XZ=     0.0265   YZ=    -3.5576   ZZ=    32.5493
   Eigenvalues:    23.5983    29.7415    33.4884
     22  H    Isotropic =    29.0724   Anisotropy =    10.3430
   XX=    32.5655   YX=     0.1291   ZX=     5.1175
   XY=    -0.6211   YY=    25.7966   ZY=    -1.3722
   XZ=     4.5767   YZ=    -0.8269   ZZ=    28.8550
   Eigenvalues:    24.8536    26.3958    35.9677
     23  H    Isotropic =    23.9104   Anisotropy =     8.0808
   XX=    28.6860   YX=     2.7142   ZX=     1.0623
   XY=     1.5934   YY=    21.6140   ZY=    -2.8884
   XZ=     0.8718   YZ=    -2.3364   ZZ=    21.4313
   Eigenvalues:    18.4338    23.9999    29.2976
     24  H    Isotropic =    23.8108   Anisotropy =    10.8793
   XX=    27.7475   YX=     3.2957   ZX=     3.5030
   XY=     3.7604   YY=    23.7699   ZY=     1.7162
   XZ=     3.2768   YZ=     1.5018   ZZ=    19.9150
   Eigenvalues:    18.6311    21.7376    31.0636
     25  H    Isotropic =    29.0894   Anisotropy =     8.8143
   XX=    34.3644   YX=     2.3135   ZX=     2.0499
   XY=     1.0009   YY=    27.9886   ZY=    -0.9353
   XZ=     1.1663   YZ=    -0.4851   ZZ=    24.9152
   Eigenvalues:    24.3710    27.9316    34.9656
     26  H    Isotropic =    28.9952   Anisotropy =     6.1124
   XX=    29.2760   YX=    -2.4115   ZX=     3.5653
   XY=    -0.5381   YY=    31.4712   ZY=     0.2307
   XZ=     3.2816   YZ=    -1.4881   ZZ=    26.2385
   Eigenvalues:    24.0013    29.9142    33.0702
     27  H    Isotropic =    29.1464   Anisotropy =     7.8871
   XX=    26.5717   YX=     0.0739   ZX=     1.0889
   XY=     0.1645   YY=    26.8789   ZY=     0.5661
   XZ=     1.8872   YZ=     1.3902   ZZ=    33.9887
   Eigenvalues:    26.2746    26.7602    34.4045
     28  H    Isotropic =    29.2790   Anisotropy =     7.5654
   XX=    26.0589   YX=     0.2218   ZX=     1.7796
   XY=     1.3183   YY=    28.7349   ZY=     2.4976
   XZ=     2.3802   YZ=     1.1984   ZZ=    33.0433
   Eigenvalues:    25.4636    28.0509    34.3226
     29  H    Isotropic =    29.1630   Anisotropy =     6.9842
   XX=    27.9008   YX=     1.2821   ZX=     3.0821
   XY=    -0.4642   YY=    33.7574   ZY=    -0.5583
   XZ=     3.0117   YZ=     1.0642   ZZ=    25.8308
   Eigenvalues:    23.6478    30.0221    33.8191
     30  H    Isotropic =    29.4093   Anisotropy =     9.1419
   XX=    34.6475   YX=     2.1677   ZX=     0.7626
   XY=     2.8303   YY=    28.2093   ZY=     0.2884
   XZ=    -0.6724   YZ=    -0.8002   ZZ=    25.3710
   Eigenvalues:    25.3382    27.3858    35.5038
     31  Pt   Isotropic =  3120.8191   Anisotropy =  1783.0247
   XX=  4307.7002   YX=   108.6800   ZX=  -137.5318
   XY=  -110.5128   YY=  3163.1613   ZY=  -365.9601
   XZ=     8.1947   YZ=  -367.1282   ZZ=  1891.5958
   Eigenvalues:  1791.9392  3261.0159  4309.5022
     32  Sn   Isotropic =  2092.6489   Anisotropy =   884.9336
   XX=  1904.8941   YX=    68.0511   ZX=    12.1349
   XY=    59.7544   YY=  2580.2188   ZY=  -300.4082
   XZ=     5.1447   YZ=  -288.9527   ZZ=  1792.8339
   Eigenvalues:  1690.9397  1904.4024  2682.6047
     33  Cl   Isotropic =   742.9826   Anisotropy =   341.3514
   XX=   684.2572   YX=    34.0180   ZX=    57.2514
   XY=    50.0859   YY=   840.6717   ZY=   159.4901
   XZ=    34.2729   YZ=   185.2033   ZZ=   704.0190
   Eigenvalues:   584.6940   673.7037   970.5502
     34  Cl   Isotropic =   711.5107   Anisotropy =   352.6110
   XX=   777.7210   YX=  -112.1232   ZX=   110.4095
   XY=  -128.5273   YY=   681.2913   ZY=   -99.4589
   XZ=   122.8233   YZ=  -104.2710   ZZ=   675.5198
   Eigenvalues:   576.4987   611.4487   946.5847
     35  Cl   Isotropic =   704.6083   Anisotropy =   358.8932
   XX=   782.0527   YX=    56.9324   ZX=  -135.1091
   XY=    73.7236   YY=   576.9355   ZY=   -92.3525
   XZ=  -131.3548   YZ=  -128.8236   ZZ=   754.8367
   Eigenvalues:   523.9535   646.0009   943.8704
     36  Cl   Isotropic =   904.8563   Anisotropy =   503.7975
   XX=   645.9443   YX=   -76.5944   ZX=   -57.0279
   XY=   -21.0575   YY=   892.8652   ZY=   159.2605
   XZ=   -86.5678   YZ=   107.2098   ZZ=  1175.7592
   Eigenvalues:   632.1843   841.6632  1240.7212
     37  C    Isotropic =    50.6402   Anisotropy =   164.0738
   XX=   105.5852   YX=    58.7550   ZX=    25.1337
   XY=    72.0291   YY=    77.5107   ZY=    -1.1227
   XZ=    22.1525   YZ=    -2.1373   ZZ=   -31.1753
   Eigenvalues:   -36.9410    28.8389   160.0227
     38  C    Isotropic =    45.2284   Anisotropy =   192.6113
   XX=    64.1246   YX=   118.2681   ZX=     8.9702
   XY=   110.7161   YY=    53.5879   ZY=    -9.8213
   XZ=    15.3465   YZ=    -0.9296   ZZ=    17.9728
   Eigenvalues:   -57.7528    19.8021   173.6360
     39  C    Isotropic =    53.6598   Anisotropy =   167.6358
   XX=    98.1923   YX=    77.5019   ZX=   -20.9384
   XY=    90.3755   YY=    58.5261   ZY=    37.7970
   XZ=   -14.5552   YZ=    42.6233   ZZ=     4.2608
   Eigenvalues:   -45.0418    40.6041   165.4170
     40  C    Isotropic =    53.0344   Anisotropy =   174.6304
   XX=    94.5723   YX=    83.2494   ZX=   -18.8705
   XY=    86.8362   YY=    71.6749   ZY=    38.3299
   XZ=   -24.4123   YZ=    39.3935   ZZ=    -7.1442
   Eigenvalues:   -48.6818    38.3302   169.4546
     41  H    Isotropic =    22.3769   Anisotropy =    13.8259
   XX=    20.3162   YX=    -0.6246   ZX=    -4.4241
   XY=    -1.4943   YY=    17.0022   ZY=    -1.6241
   XZ=    -3.8528   YZ=    -3.0594   ZZ=    29.8124
   Eigenvalues:    15.7128    19.8238    31.5942
     42  C    Isotropic =    52.7119   Anisotropy =   175.7146
   XX=    79.9509   YX=   110.3192   ZX=    16.5237
   XY=   100.8501   YY=    44.3731   ZY=    -6.7605
   XZ=    19.5756   YZ=    -7.6188   ZZ=    33.8118
   Eigenvalues:   -48.4985    36.7793   169.8550
     43  H    Isotropic =    24.0557   Anisotropy =    11.2063
   XX=    23.6564   YX=    -3.8430   ZX=    -4.3532
   XY=    -2.5872   YY=    22.2488   ZY=     2.7967
   XZ=    -4.1754   YZ=     3.4204   ZZ=    26.2619
   Eigenvalues:    19.6352    21.0053    31.5266
     44  C    Isotropic =    48.4120   Anisotropy =   165.5661
   XX=   100.8694   YX=    69.9559   ZX=    31.0670
   XY=    62.9786   YY=    80.7258   ZY=    -2.9896
   XZ=    16.7798   YZ=   -15.5190   ZZ=   -36.3592
   Eigenvalues:   -44.5860    31.0327   158.7894
     45  H    Isotropic =    23.9615   Anisotropy =     6.9652
   XX=    22.9382   YX=    -1.0161   ZX=    -3.1161
   XY=    -1.9021   YY=    22.1236   ZY=     0.7609
   XZ=    -2.3780   YZ=     1.1417   ZZ=    26.8228
   Eigenvalues:    20.7944    22.4853    28.6050
     46  H    Isotropic =    24.7516   Anisotropy =     4.8174
   XX=    23.3454   YX=    -0.7935   ZX=    -1.5141
   XY=     0.3537   YY=    23.2017   ZY=    -0.1074
   XZ=    -0.6487   YZ=     0.2083   ZZ=    27.7078
   Eigenvalues:    22.9362    23.3554    27.9632
     47  H    Isotropic =    24.6148   Anisotropy =     2.3498
   XX=    24.4616   YX=    -1.7630   ZX=    -0.4237
   XY=    -1.2958   YY=    24.7292   ZY=    -0.4905
   XZ=     0.4444   YZ=    -0.2412   ZZ=    24.6538
   Eigenvalues:    23.0244    24.6388    26.1813
     48  C    Isotropic =    70.7079   Anisotropy =   163.8298
   XX=   132.9455   YX=    57.8358   ZX=    58.8083
   XY=    51.1977   YY=    42.0248   ZY=     7.6649
   XZ=    57.1817   YZ=     3.5316   ZZ=    37.1535
   Eigenvalues:    -2.1002    34.2962   179.9278
     49  C    Isotropic =    63.1891   Anisotropy =   197.6663
   XX=   134.8535   YX=    39.8128   ZX=    69.9166
   XY=    44.3361   YY=    42.5144   ZY=    63.2795
   XZ=    71.5969   YZ=    58.9110   ZZ=    12.1992
   Eigenvalues:   -42.2853    36.8858   194.9666
     50  C    Isotropic =    65.8597   Anisotropy =   209.0498
   XX=   141.9880   YX=    69.9312   ZX=    46.9343
   XY=    77.1839   YY=    13.8365   ZY=    49.7848
   XZ=    49.4365   YZ=    69.7599   ZZ=    41.7545
   Eigenvalues:   -39.5937    31.9465   205.2262
     51  C    Isotropic =    36.8880   Anisotropy =   142.0932
   XX=   101.8195   YX=    52.8418   ZX=    24.6542
   XY=    38.2110   YY=   -33.9851   ZY=    36.5189
   XZ=    31.7987   YZ=    31.6224   ZZ=    42.8296
   Eigenvalues:   -54.4904    33.5377   131.6168
     52  H    Isotropic =    23.1823   Anisotropy =    12.5649
   XX=    23.6312   YX=    -6.3818   ZX=    -0.5240
   XY=    -5.3581   YY=    27.1254   ZY=     0.4795
   XZ=    -2.1687   YZ=    -0.3827   ZZ=    18.7903
   Eigenvalues:    17.9143    20.0737    31.5589
     53  C    Isotropic =    41.2528   Anisotropy =   150.4319
   XX=   107.3420   YX=    27.5335   ZX=    57.5324
   XY=    36.1577   YY=    48.9344   ZY=    26.3003
   XZ=    44.1677   YZ=    36.4469   ZZ=   -32.5181
   Eigenvalues:   -53.3366    35.5541   141.5407
     54  H    Isotropic =    23.2314   Anisotropy =    12.2678
   XX=    22.6425   YX=    -3.2947   ZX=    -6.0092
   XY=    -4.7561   YY=    21.5063   ZY=     0.6461
   XZ=    -5.8959   YZ=     1.5526   ZZ=    25.5455
   Eigenvalues:    16.4932    21.7911    31.4100
     55  C    Isotropic =    28.0792   Anisotropy =   136.7400
   XX=    73.3766   YX=    59.1675   ZX=    58.6045
   XY=    52.1662   YY=     1.5289   ZY=   -18.9171
   XZ=    51.4817   YZ=   -20.9248   ZZ=     9.3319
   Eigenvalues:   -60.4763    25.4746   119.2392
     56  H    Isotropic =    22.9546   Anisotropy =     7.3119
   XX=    22.0056   YX=    -3.0986   ZX=    -3.2514
   XY=    -3.2461   YY=    23.1504   ZY=     0.6448
   XZ=    -3.8849   YZ=     0.2469   ZZ=    23.7078
   Eigenvalues:    18.0829    22.9517    27.8292
     57  H    Isotropic =    23.0798   Anisotropy =     7.9664
   XX=    22.0087   YX=    -3.7595   ZX=    -2.9794
   XY=    -4.0423   YY=    24.5254   ZY=     0.1917
   XZ=    -3.0986   YZ=     1.1039   ZZ=    22.7052
   Eigenvalues:    18.0992    22.7494    28.3907
     58  H    Isotropic =    22.6396   Anisotropy =     4.9281
   XX=    20.3331   YX=    -2.5521   ZX=    -2.4786
   XY=    -2.6969   YY=    23.9373   ZY=    -2.1579
   XZ=    -2.7394   YZ=    -2.0809   ZZ=    23.6485
   Eigenvalues:    17.2417    24.7522    25.9250
 End of Minotr F.D. properties file   721 does not exist.
 End of Minotr F.D. properties file   722 does not exist.
 End of Minotr F.D. properties file   788 does not exist.
 Leave Link 1002 at Sat Aug 24 07:20:01 2019, MaxMem=   939524096 cpu:     45383.4
 (Enter /scr/programas/g09/l601.exe)
 Copying SCF densities to generalized density rwf, IOpCl= 0 IROHF=0.

 **********************************************************************

            Population analysis using the SCF density.

 **********************************************************************

 Orbital symmetries:
       Occupied  (A) (A) (A) (A) (A) (A) (A) (A) (A) (A) (A) (A)
                 (A) (A) (A) (A) (A) (A) (A) (A) (A) (A) (A) (A)
                 (A) (A) (A) (A) (A) (A) (A) (A) (A) (A) (A) (A)
                 (A) (A) (A) (A) (A) (A) (A) (A) (A) (A) (A) (A)
                 (A) (A) (A) (A) (A) (A) (A) (A) (A) (A) (A) (A)
                 (A) (A) (A) (A) (A) (A) (A) (A) (A) (A) (A) (A)
                 (A) (A) (A) (A) (A) (A) (A) (A) (A) (A) (A) (A)
                 (A) (A) (A) (A) (A) (A) (A) (A) (A) (A) (A) (A)
                 (A) (A) (A) (A) (A) (A) (A) (A) (A) (A) (A) (A)
                 (A) (A) (A) (A) (A) (A) (A) (A) (A) (A) (A) (A)
                 (A) (A) (A) (A) (A) (A) (A) (A) (A) (A) (A) (A)
                 (A) (A) (A) (A) (A) (A) (A) (A) (A) (A) (A) (A)
                 (A) (A) (A) (A) (A) (A) (A) (A) (A) (A) (A) (A)
                 (A) (A) (A) (A) (A) (A) (A) (A) (A) (A) (A) (A)
                 (A) (A) (A) (A) (A) (A) (A) (A) (A) (A) (A) (A)
                 (A) (A) (A) (A) (A) (A) (A) (A) (A) (A) (A) (A)
                 (A) (A) (A) (A) (A) (A)
       Virtual   (A) (A) (A) (A) (A) (A) (A) (A) (A) (A) (A) (A)
                 (A) (A) (A) (A) (A) (A) (A) (A) (A) (A) (A) (A)
                 (A) (A) (A) (A) (A) (A) (A) (A) (A) (A) (A) (A)
                 (A) (A) (A) (A) (A) (A) (A) (A) (A) (A) (A) (A)
                 (A) (A) (A) (A) (A) (A) (A) (A) (A) (A) (A) (A)
                 (A) (A) (A) (A) (A) (A) (A) (A) (A) (A) (A) (A)
                 (A) (A) (A) (A) (A) (A) (A) (A) (A) (A) (A) (A)
                 (A) (A) (A) (A) (A) (A) (A) (A) (A) (A) (A) (A)
                 (A) (A) (A) (A) (A) (A) (A) (A) (A) (A) (A) (A)
                 (A) (A) (A) (A) (A) (A) (A) (A) (A) (A) (A) (A)
                 (A) (A) (A) (A) (A) (A) (A) (A) (A) (A) (A) (A)
                 (A) (A) (A) (A) (A) (A) (A) (A) (A) (A) (A) (A)
                 (A) (A) (A) (A) (A) (A) (A) (A) (A) (A) (A) (A)
                 (A) (A) (A) (A) (A) (A) (A) (A) (A) (A) (A) (A)
                 (A) (A) (A) (A) (A) (A) (A) (A) (A) (A) (A) (A)
                 (A) (A) (A) (A) (A) (A) (A) (A) (A) (A) (A) (A)
                 (A) (A) (A) (A) (A) (A) (A) (A) (A) (A) (A) (A)
                 (A) (A) (A) (A) (A) (A) (A) (A) (A) (A) (A) (A)
                 (A) (A) (A) (A) (A) (A) (A) (A) (A) (A) (A) (A)
                 (A) (A) (A) (A) (A) (A) (A) (A) (A) (A) (A) (A)
                 (A) (A) (A) (A) (A) (A) (A) (A) (A) (A) (A) (A)
                 (A) (A) (A) (A) (A) (A) (A) (A) (A) (A) (A) (A)
                 (A) (A) (A) (A) (A) (A) (A) (A) (A) (A) (A) (A)
                 (A) (A) (A) (A) (A) (A) (A) (A) (A) (A) (A) (A)
                 (A) (A) (A) (A) (A) (A) (A) (A) (A) (A) (A) (A)
                 (A) (A) (A) (A) (A) (A) (A) (A) (A) (A) (A) (A)
                 (A) (A) (A) (A) (A) (A) (A) (A) (A) (A) (A) (A)
                 (A) (A) (A) (A) (A) (A) (A) (A) (A) (A) (A) (A)
                 (A) (A) (A) (A) (A) (A) (A) (A) (A) (A) (A) (A)
                 (A) (A) (A) (A) (A) (A) (A) (A) (A) (A) (A) (A)
                 (A) (A) (A) (A) (A) (A) (A) (A) (A) (A) (A) (A)
                 (A) (A) (A) (A) (A) (A) (A) (A) (A) (A) (A) (A)
                 (A) (A) (A) (A) (A) (A) (A) (A) (A) (A) (A) (A)
                 (A) (A) (A) (A) (A) (A) (A) (A) (A) (A) (A) (A)
                 (A) (A) (A) (A) (A) (A) (A) (A) (A) (A) (A) (A)
                 (A) (A) (A) (A) (A) (A) (A) (A) (A) (A) (A) (A)
                 (A) (A) (A) (A) (A) (A) (A) (A) (A) (A) (A) (A)
                 (A) (A) (A) (A) (A) (A) (A) (A) (A) (A) (A) (A)
                 (A) (A) (A) (A) (A) (A) (A) (A) (A) (A) (A) (A)
                 (A) (A) (A) (A) (A) (A) (A) (A) (A) (A) (A) (A)
                 (A) (A) (A) (A) (A) (A) (A) (A) (A) (A) (A) (A)
                 (A) (A) (A) (A) (A) (A) (A) (A) (A) (A) (A) (A)
                 (A) (A) (A) (A) (A) (A) (A) (A) (A) (A) (A) (A)
                 (A) (A) (A) (A) (A) (A) (A) (A) (A) (A) (A) (A)
                 (A) (A) (A) (A) (A) (A) (A) (A) (A) (A) (A) (A)
                 (A) (A) (A) (A) (A) (A) (A) (A) (A) (A) (A) (A)
                 (A) (A) (A) (A) (A) (A) (A) (A) (A) (A) (A) (A)
                 (A) (A) (A) (A) (A) (A) (A) (A) (A) (A) (A) (A)
                 (A) (A) (A) (A) (A) (A) (A) (A) (A) (A) (A) (A)
                 (A) (A) (A) (A) (A) (A) (A) (A) (A) (A) (A) (A)
                 (A) (A) (A) (A) (A) (A) (A) (A) (A) (A) (A) (A)
                 (A) (A) (A) (A) (A) (A) (A) (A) (A) (A) (A) (A)
                 (A) (A) (A) (A) (A) (A) (A) (A) (A) (A) (A) (A)
                 (A) (A) (A) (A) (A) (A) (A) (A) (A) (A) (A) (A)
                 (A) (A) (A) (A) (A) (A) (A) (A) (A) (A) (A) (A)
                 (A) (A) (A) (A) (A) (A) (A) (A) (A) (A) (A) (A)
                 (A) (A) (A) (A) (A) (A) (A) (A) (A) (A) (A) (A)
                 (A) (A) (A) (A) (A) (A) (A) (A) (A) (A) (A) (A)
                 (A) (A) (A) (A) (A) (A) (A) (A) (A) (A) (A) (A)
                 (A) (A) (A) (A) (A) (A) (A) (A) (A) (A) (A) (A)
                 (A) (A) (A) (A) (A) (A) (A) (A) (A) (A) (A) (A)
                 (A) (A) (A) (A) (A) (A) (A) (A) (A) (A) (A) (A)
                 (A) (A) (A) (A) (A) (A) (A) (A) (A) (A) (A) (A)
                 (A) (A) (A) (A) (A) (A) (A) (A) (A) (A) (A) (A)
                 (A) (A) (A) (A) (A) (A) (A) (A) (A) (A) (A) (A)
                 (A) (A) (A) (A) (A) (A) (A) (A) (A) (A) (A) (A)
                 (A) (A) (A) (A) (A) (A) (A) (A) (A) (A) (A) (A)
                 (A) (A) (A) (A) (A) (A) (A) (A) (A) (A) (A) (A)
                 (A) (A) (A) (A) (A) (A) (A) (A) (A) (A) (A) (A)
                 (A) (A) (A) (A) (A) (A) (A) (A) (A) (A) (A) (A)
                 (A) (A) (A) (A) (A) (A) (A) (A) (A) (A) (A) (A)
                 (A) (A) (A) (A) (A) (A) (A) (A) (A) (A) (A) (A)
                 (A) (A) (A) (A) (A) (A) (A) (A) (A) (A) (A) (A)
                 (A) (A) (A) (A) (A) (A) (A) (A) (A) (A) (A) (A)
                 (A) (A) (A) (A) (A) (A) (A) (A) (A) (A) (A) (A)
                 (A) (A) (A) (A) (A) (A) (A) (A) (A) (A) (A) (A)
                 (A) (A) (A) (A) (A) (A) (A) (A) (A) (A) (A) (A)
                 (A) (A) (A) (A) (A) (A) (A) (A) (A) (A) (A) (A)
                 (A) (A) (A) (A) (A) (A) (A) (A) (A) (A) (A) (A)
                 (A) (A) (A) (A) (A) (A) (A) (A) (A) (A) (A) (A)
                 (A) (A) (A) (A) (A) (A) (A) (A) (A) (A) (A) (A)
                 (A) (A) (A) (A) (A) (A) (A) (A) (A) (A) (A) (A)
                 (A) (A) (A) (A) (A) (A) (A) (A) (A) (A) (A) (A)
                 (A) (A) (A) (A) (A) (A) (A) (A) (A) (A) (A) (A)
                 (A) (A) (A) (A) (A) (A) (A) (A) (A) (A) (A) (A)
                 (A) (A) (A) (A) (A) (A) (A) (A) (A) (A) (A) (A)
                 (A) (A) (A) (A) (A) (A) (A) (A) (A) (A) (A) (A)
                 (A) (A) (A) (A) (A) (A) (A) (A) (A) (A) (A) (A)
                 (A) (A) (A) (A) (A) (A) (A) (A) (A) (A) (A) (A)
                 (A) (A) (A) (A) (A) (A) (A) (A) (A) (A) (A) (A)
                 (A) (A) (A) (A) (A) (A) (A) (A) (A) (A) (A)
 The electronic state is 1-A.
 Alpha  occ. eigenvalues -- ********************-427.54988-414.88058-414.87969
 Alpha  occ. eigenvalues -- -414.87700-149.66516-141.94330-141.94324-141.94254
 Alpha  occ. eigenvalues -- -100.56417-100.56293-100.56278-100.53237 -99.93042
 Alpha  occ. eigenvalues --  -92.08959 -92.08775 -92.08364 -79.04815 -79.04688
 Alpha  occ. eigenvalues --  -79.04465 -79.04357 -79.04306 -76.32051 -76.31736
 Alpha  occ. eigenvalues --  -28.82910 -25.17551 -25.17534 -25.17306 -20.84509
 Alpha  occ. eigenvalues --  -17.72439 -17.72438 -17.72284 -17.72274 -17.72230
 Alpha  occ. eigenvalues --  -17.41470 -17.41114 -17.40253 -11.59820 -11.59377
 Alpha  occ. eigenvalues --  -11.58920 -11.58695 -11.58590  -9.93295  -9.92956
 Alpha  occ. eigenvalues --   -9.92914  -9.92748  -9.92704  -9.92609  -9.91423
 Alpha  occ. eigenvalues --   -9.91335  -9.91238  -9.90903  -9.90780  -9.90741
 Alpha  occ. eigenvalues --   -9.90734  -9.90715  -9.90695  -9.90693  -9.90671
 Alpha  occ. eigenvalues --   -9.90651  -9.90578  -9.90518  -9.89723  -9.89608
 Alpha  occ. eigenvalues --   -9.89567  -9.89510  -9.14306  -9.14170  -9.14151
 Alpha  occ. eigenvalues --   -9.11059  -6.98111  -6.97962  -6.97954  -6.97486
 Alpha  occ. eigenvalues --   -6.97469  -6.97357  -6.97343  -6.97337  -6.97315
 Alpha  occ. eigenvalues --   -6.94819  -6.94287  -6.94237  -6.35067  -6.34744
 Alpha  occ. eigenvalues --   -4.57590  -4.57570  -4.57361  -4.57274  -4.57247
 Alpha  occ. eigenvalues --   -4.57032  -4.51654  -3.25107  -3.25067  -3.24698
 Alpha  occ. eigenvalues --   -3.14686  -3.14642  -3.14141  -3.13811  -3.13673
 Alpha  occ. eigenvalues --   -3.13486  -3.13454  -2.87484  -1.82819  -1.82178
 Alpha  occ. eigenvalues --   -1.79668  -1.04167  -1.04161  -1.03790  -1.03734
 Alpha  occ. eigenvalues --   -1.03693  -0.80027  -0.79883  -0.78944  -0.78828
 Alpha  occ. eigenvalues --   -0.73167  -0.71459  -0.71397  -0.70705  -0.70517
 Alpha  occ. eigenvalues --   -0.69885  -0.69772  -0.69034  -0.68924  -0.68467
 Alpha  occ. eigenvalues --   -0.67215  -0.67114  -0.61672  -0.61551  -0.59500
 Alpha  occ. eigenvalues --   -0.59190  -0.55851  -0.55799  -0.54781  -0.54604
 Alpha  occ. eigenvalues --   -0.51479  -0.51167  -0.47471  -0.47329  -0.46508
 Alpha  occ. eigenvalues --   -0.46273  -0.43780  -0.43351  -0.42977  -0.41803
 Alpha  occ. eigenvalues --   -0.41759  -0.41679  -0.41502  -0.40242  -0.39815
 Alpha  occ. eigenvalues --   -0.39737  -0.39347  -0.38564  -0.38430  -0.38033
 Alpha  occ. eigenvalues --   -0.36747  -0.36646  -0.36561  -0.36503  -0.36337
 Alpha  occ. eigenvalues --   -0.36069  -0.35937  -0.35434  -0.35199  -0.34552
 Alpha  occ. eigenvalues --   -0.34036  -0.33322  -0.33267  -0.32722  -0.32224
 Alpha  occ. eigenvalues --   -0.32107  -0.32003  -0.31697  -0.31559  -0.31378
 Alpha  occ. eigenvalues --   -0.31102  -0.30440  -0.29391  -0.28957  -0.28731
 Alpha  occ. eigenvalues --   -0.28494  -0.28366  -0.28153  -0.27105  -0.26999
 Alpha  occ. eigenvalues --   -0.26742  -0.26605  -0.25988  -0.25000  -0.24639
 Alpha  occ. eigenvalues --   -0.24584  -0.24317  -0.23678  -0.23114  -0.22381
 Alpha  occ. eigenvalues --   -0.22266  -0.21774  -0.21598
 Alpha virt. eigenvalues --   -0.12877  -0.09502  -0.08363  -0.06734  -0.06464
 Alpha virt. eigenvalues --   -0.05807  -0.05626  -0.05025  -0.04036  -0.03141
 Alpha virt. eigenvalues --   -0.01706  -0.01389  -0.00933  -0.00344   0.00116
 Alpha virt. eigenvalues --    0.00208   0.00504   0.00585   0.00802   0.01407
 Alpha virt. eigenvalues --    0.01533   0.01880   0.02356   0.02673   0.03024
 Alpha virt. eigenvalues --    0.03145   0.03488   0.03845   0.04415   0.04795
 Alpha virt. eigenvalues --    0.05008   0.05066   0.05382   0.05430   0.05599
 Alpha virt. eigenvalues --    0.05689   0.05859   0.06511   0.06658   0.07138
 Alpha virt. eigenvalues --    0.07261   0.07377   0.07482   0.08116   0.08239
 Alpha virt. eigenvalues --    0.08506   0.08823   0.08960   0.09209   0.09294
 Alpha virt. eigenvalues --    0.09524   0.09887   0.10101   0.10416   0.10524
 Alpha virt. eigenvalues --    0.10537   0.10698   0.10932   0.11323   0.11421
 Alpha virt. eigenvalues --    0.11478   0.11668   0.11929   0.12053   0.12196
 Alpha virt. eigenvalues --    0.12375   0.12576   0.12706   0.12974   0.13106
 Alpha virt. eigenvalues --    0.13310   0.13387   0.13755   0.14006   0.14282
 Alpha virt. eigenvalues --    0.14444   0.14561   0.14860   0.14895   0.15272
 Alpha virt. eigenvalues --    0.15483   0.15843   0.16042   0.16310   0.16397
 Alpha virt. eigenvalues --    0.16549   0.16861   0.17026   0.17316   0.17501
 Alpha virt. eigenvalues --    0.17706   0.17908   0.18202   0.18348   0.18554
 Alpha virt. eigenvalues --    0.18837   0.19229   0.19459   0.19721   0.19869
 Alpha virt. eigenvalues --    0.19933   0.20012   0.20430   0.20689   0.21103
 Alpha virt. eigenvalues --    0.21233   0.21294   0.21626   0.21635   0.22125
 Alpha virt. eigenvalues --    0.22449   0.22515   0.22647   0.22833   0.23023
 Alpha virt. eigenvalues --    0.23179   0.23496   0.23636   0.23673   0.23983
 Alpha virt. eigenvalues --    0.24072   0.24336   0.24497   0.24728   0.24954
 Alpha virt. eigenvalues --    0.25361   0.25648   0.25997   0.26082   0.26175
 Alpha virt. eigenvalues --    0.26558   0.26592   0.26938   0.27010   0.27216
 Alpha virt. eigenvalues --    0.27497   0.27877   0.28070   0.28124   0.28335
 Alpha virt. eigenvalues --    0.28510   0.28783   0.29220   0.29411   0.29615
 Alpha virt. eigenvalues --    0.30032   0.30484   0.30593   0.30776   0.30848
 Alpha virt. eigenvalues --    0.31104   0.31425   0.31489   0.31696   0.31987
 Alpha virt. eigenvalues --    0.32194   0.32337   0.32458   0.32660   0.32823
 Alpha virt. eigenvalues --    0.32913   0.33374   0.33382   0.33930   0.34169
 Alpha virt. eigenvalues --    0.34308   0.34418   0.34580   0.34751   0.35221
 Alpha virt. eigenvalues --    0.35493   0.35624   0.35763   0.36142   0.36519
 Alpha virt. eigenvalues --    0.36564   0.36896   0.37169   0.37503   0.37652
 Alpha virt. eigenvalues --    0.37829   0.38112   0.38327   0.38451   0.38550
 Alpha virt. eigenvalues --    0.38894   0.39262   0.39396   0.39791   0.40021
 Alpha virt. eigenvalues --    0.40181   0.40443   0.40702   0.40803   0.41010
 Alpha virt. eigenvalues --    0.41152   0.41330   0.41528   0.41874   0.42103
 Alpha virt. eigenvalues --    0.42453   0.42572   0.42619   0.42950   0.43142
 Alpha virt. eigenvalues --    0.43231   0.43365   0.43633   0.43813   0.43975
 Alpha virt. eigenvalues --    0.44215   0.44441   0.44795   0.45000   0.45086
 Alpha virt. eigenvalues --    0.45403   0.45692   0.45793   0.46104   0.46236
 Alpha virt. eigenvalues --    0.46553   0.46806   0.46977   0.47300   0.47488
 Alpha virt. eigenvalues --    0.47862   0.47969   0.48173   0.48436   0.48672
[...]
 Alpha virt. eigenvalues --    0.54773   0.54942   0.55199   0.55546   0.55616
 Alpha virt. eigenvalues --    0.55858   0.56367   0.56413   0.56601   0.56757
 Alpha virt. eigenvalues --    0.56855   0.57007   0.57185   0.57352   0.57707
 Alpha virt. eigenvalues --    0.57834   0.57988   0.58263   0.58547   0.58774
 Alpha virt. eigenvalues --    0.58802   0.59184   0.59592   0.59774   0.59940
 Alpha virt. eigenvalues --    0.59972   0.60217   0.60446   0.60473   0.60746
 Alpha virt. eigenvalues --    0.60854   0.61051   0.61389   0.61652   0.61989
 Alpha virt. eigenvalues --    0.62061   0.62292   0.62642   0.62748   0.63167
 Alpha virt. eigenvalues --    0.63478   0.63638   0.63947   0.64134   0.64316
 Alpha virt. eigenvalues --    0.64636   0.65034   0.65097   0.65363   0.65703
 Alpha virt. eigenvalues --    0.65878   0.66000   0.66293   0.66443   0.66761
 Alpha virt. eigenvalues --    0.66850   0.67227   0.67368   0.67444   0.67614
 Alpha virt. eigenvalues --    0.67837   0.68027   0.68200   0.68225   0.68780
 Alpha virt. eigenvalues --    0.68955   0.69028   0.69186   0.69395   0.69487
 Alpha virt. eigenvalues --    0.69820   0.69911   0.70280   0.70357   0.70587
 Alpha virt. eigenvalues --    0.70875   0.71074   0.71360   0.71666   0.71816
 Alpha virt. eigenvalues --    0.72097   0.72355   0.72538   0.72722   0.73054
 Alpha virt. eigenvalues --    0.73117   0.73188   0.73537   0.74052   0.74120
 Alpha virt. eigenvalues --    0.74254   0.74387   0.74567   0.74756   0.75460
 Alpha virt. eigenvalues --    0.75662   0.75921   0.76064   0.76187   0.76550
 Alpha virt. eigenvalues --    0.76756   0.77032   0.77269   0.77341   0.77467
 Alpha virt. eigenvalues --    0.77684   0.78062   0.78229   0.78664   0.78938
 Alpha virt. eigenvalues --    0.79031   0.79453   0.79676   0.80121   0.80258
 Alpha virt. eigenvalues --    0.80627   0.80993   0.81367   0.81622   0.81686
 Alpha virt. eigenvalues --    0.82026   0.82425   0.82471   0.82697   0.82820
 Alpha virt. eigenvalues --    0.83091   0.83563   0.83982   0.84328   0.84695
 Alpha virt. eigenvalues --    0.84935   0.85048   0.85372   0.85657   0.85894
 Alpha virt. eigenvalues --    0.86261   0.86474   0.86580   0.86736   0.87205
 Alpha virt. eigenvalues --    0.87275   0.87464   0.87640   0.88159   0.88329
 Alpha virt. eigenvalues --    0.88591   0.88759   0.88941   0.89663   0.89802
 Alpha virt. eigenvalues --    0.90502   0.90543   0.91151   0.91325   0.91472
 Alpha virt. eigenvalues --    0.91713   0.92402   0.92712   0.92722   0.93008
 Alpha virt. eigenvalues --    0.93214   0.93931   0.94133   0.94247   0.94718
 Alpha virt. eigenvalues --    0.95243   0.95547   0.95916   0.96080   0.96359
 Alpha virt. eigenvalues --    0.96766   0.97048   0.97069   0.97548   0.97657
 Alpha virt. eigenvalues --    0.97976   0.98200   0.98768   0.99171   0.99467
 Alpha virt. eigenvalues --    0.99716   1.00078   1.00597   1.00850   1.01148
 Alpha virt. eigenvalues --    1.01630   1.01977   1.02235   1.02395   1.02784
 Alpha virt. eigenvalues --    1.03092   1.03121   1.03755   1.03961   1.04125
 Alpha virt. eigenvalues --    1.04257   1.04757   1.05090   1.05571   1.05663
 Alpha virt. eigenvalues --    1.05800   1.06175   1.06416   1.06916   1.07030
 Alpha virt. eigenvalues --    1.07701   1.07847   1.07946   1.08321   1.08542
 Alpha virt. eigenvalues --    1.09222   1.09604   1.09828   1.10199   1.10636
 Alpha virt. eigenvalues --    1.10890   1.11264   1.11367   1.11523   1.11661
 Alpha virt. eigenvalues --    1.11995   1.12620   1.12890   1.13130   1.13479
 Alpha virt. eigenvalues --    1.13793   1.14092   1.14632   1.14836   1.15089
 Alpha virt. eigenvalues --    1.15295   1.15521   1.15750   1.16286   1.16360
 Alpha virt. eigenvalues --    1.16689   1.17261   1.17616   1.17736   1.18041
 Alpha virt. eigenvalues --    1.18368   1.18740   1.19002   1.19634   1.19767
 Alpha virt. eigenvalues --    1.20361   1.20854   1.21144   1.21204   1.22043
 Alpha virt. eigenvalues --    1.22356   1.22638   1.22909   1.23520   1.24224
 Alpha virt. eigenvalues --    1.24485   1.25225   1.25381   1.26176   1.26354
 Alpha virt. eigenvalues --    1.27138   1.27494   1.27669   1.28204   1.28353
 Alpha virt. eigenvalues --    1.29085   1.29309   1.29881   1.30169   1.30396
 Alpha virt. eigenvalues --    1.30619   1.30817   1.31605   1.31903   1.31942
 Alpha virt. eigenvalues --    1.33282   1.33442   1.33651   1.34314   1.34813
 Alpha virt. eigenvalues --    1.35327   1.35982   1.36048   1.36479   1.36916
 Alpha virt. eigenvalues --    1.37364   1.37682   1.37958   1.38419   1.38860
 Alpha virt. eigenvalues --    1.39350   1.39660   1.39945   1.40766   1.41470
 Alpha virt. eigenvalues --    1.41599   1.41906   1.42325   1.42857   1.42949
 Alpha virt. eigenvalues --    1.43436   1.43837   1.44766   1.45052   1.45276
 Alpha virt. eigenvalues --    1.46113   1.46472   1.46980   1.47465   1.47952
 Alpha virt. eigenvalues --    1.48164   1.48751   1.48929   1.49250   1.49468
 Alpha virt. eigenvalues --    1.50363   1.50878   1.51115   1.51796   1.51937
 Alpha virt. eigenvalues --    1.52289   1.52812   1.52864   1.53552   1.54386
 Alpha virt. eigenvalues --    1.54678   1.55414   1.55905   1.56623   1.56678
 Alpha virt. eigenvalues --    1.57686   1.58477   1.59082   1.59172   1.60308
 Alpha virt. eigenvalues --    1.60568   1.61429   1.61875   1.62218   1.62572
 Alpha virt. eigenvalues --    1.63213   1.63330   1.64376   1.64561   1.64645
 Alpha virt. eigenvalues --    1.65298   1.66080   1.66437   1.66979   1.67159
 Alpha virt. eigenvalues --    1.67583   1.68005   1.68133   1.68426   1.68926
 Alpha virt. eigenvalues --    1.69014   1.69210   1.70036   1.70053   1.70294
 Alpha virt. eigenvalues --    1.70492   1.71219   1.71707   1.72275   1.72558
 Alpha virt. eigenvalues --    1.73813   1.74309   1.75020   1.75487   1.76025
 Alpha virt. eigenvalues --    1.76797   1.77206   1.77986   1.78546   1.78943
 Alpha virt. eigenvalues --    1.79395   1.80614   1.80825   1.81990   1.82400
 Alpha virt. eigenvalues --    1.83299   1.83354   1.83573   1.83758   1.83984
 Alpha virt. eigenvalues --    1.84699   1.85518   1.86157   1.86354   1.87516
 Alpha virt. eigenvalues --    1.88570   1.89000   1.89672   1.89810   1.90426
 Alpha virt. eigenvalues --    1.90912   1.91058   1.92270   1.92479   1.92690
 Alpha virt. eigenvalues --    1.93550   1.93886   1.94139   1.94542   1.94903
 Alpha virt. eigenvalues --    1.95288   1.95792   1.96042   1.96349   1.96452
 Alpha virt. eigenvalues --    1.97249   1.97948   1.98187   1.98274   1.98714
 Alpha virt. eigenvalues --    1.99123   1.99764   2.00136   2.00598   2.00918
 Alpha virt. eigenvalues --    2.01050   2.01650   2.02269   2.02507   2.02912
 Alpha virt. eigenvalues --    2.03167   2.03620   2.04131   2.04792   2.04948
 Alpha virt. eigenvalues --    2.05368   2.05777   2.06106   2.06828   2.07206
 Alpha virt. eigenvalues --    2.08214   2.09025   2.09394   2.09814   2.09969
 Alpha virt. eigenvalues --    2.11038   2.11504   2.12100   2.12525   2.12822
 Alpha virt. eigenvalues --    2.13812   2.14029   2.14780   2.15573   2.16346
 Alpha virt. eigenvalues --    2.16621   2.17512   2.17808   2.18178   2.18675
 Alpha virt. eigenvalues --    2.19115   2.19887   2.20500   2.20853   2.22035
 Alpha virt. eigenvalues --    2.22200   2.23107   2.23566   2.23922   2.24896
 Alpha virt. eigenvalues --    2.25598   2.25885   2.26719   2.26755   2.27025
 Alpha virt. eigenvalues --    2.27108   2.27770   2.28784   2.29225   2.29491
 Alpha virt. eigenvalues --    2.29917   2.30281   2.30626   2.31204   2.31990
 Alpha virt. eigenvalues --    2.33213   2.33354   2.34346   2.34522   2.34952
 Alpha virt. eigenvalues --    2.36110   2.36666   2.36944   2.37913   2.38701
 Alpha virt. eigenvalues --    2.38961   2.39764   2.40227   2.40824   2.41738
 Alpha virt. eigenvalues --    2.42404   2.42655   2.43210   2.43575   2.44216
 Alpha virt. eigenvalues --    2.44432   2.45090   2.45319   2.45792   2.46433
 Alpha virt. eigenvalues --    2.46476   2.47846   2.48018   2.48240   2.49373
 Alpha virt. eigenvalues --    2.49837   2.50593   2.51490   2.52772   2.54087
 Alpha virt. eigenvalues --    2.54277   2.55279   2.55830   2.56064   2.56809
 Alpha virt. eigenvalues --    2.57836   2.58133   2.58862   2.59800   2.60566
 Alpha virt. eigenvalues --    2.61558   2.62764   2.63502   2.64281   2.65055
 Alpha virt. eigenvalues --    2.65305   2.65664   2.66959   2.67338   2.67737
 Alpha virt. eigenvalues --    2.68080   2.69833   2.70862   2.71450   2.71534
 Alpha virt. eigenvalues --    2.72533   2.73064   2.74410   2.76151   2.76310
 Alpha virt. eigenvalues --    2.77576   2.80705   2.81012   2.81335   2.81778
 Alpha virt. eigenvalues --    2.83176   2.83423   2.83671   2.84004   2.84472
 Alpha virt. eigenvalues --    2.85776   2.86936   2.88146   2.89165   2.89842
 Alpha virt. eigenvalues --    2.92566   2.93103   2.93859   2.94794   2.97271
 Alpha virt. eigenvalues --    2.97869   2.98611   3.00334   3.00962   3.01521
 Alpha virt. eigenvalues --    3.03586   3.03822   3.04201   3.05237   3.07215
 Alpha virt. eigenvalues --    3.07943   3.08783   3.09280   3.10901   3.11303
 Alpha virt. eigenvalues --    3.12042   3.13403   3.13648   3.14263   3.14590
 Alpha virt. eigenvalues --    3.15781   3.16166   3.17222   3.17798   3.17973
 Alpha virt. eigenvalues --    3.18399   3.18581   3.19481   3.20005   3.20552
 Alpha virt. eigenvalues --    3.20847   3.21509   3.22149   3.25159   3.27343
 Alpha virt. eigenvalues --    3.28536   3.30293   3.31166   3.32035   3.33462
 Alpha virt. eigenvalues --    3.35288   3.36802   3.38160   3.39243   3.40743
 Alpha virt. eigenvalues --    3.44407   3.45137   3.48669   3.49703   3.49903
 Alpha virt. eigenvalues --    3.51275   3.54630   3.55756   3.63837   3.71144
 Alpha virt. eigenvalues --    3.84904   3.87915   3.90431   3.91638   3.94948
 Alpha virt. eigenvalues --    4.01634   4.07967   4.09043   4.17496   4.18388
 Alpha virt. eigenvalues --    4.19572   4.19974   4.21883   4.22121   4.24549
 Alpha virt. eigenvalues --    4.25760   4.27242   4.28263   4.29281   4.30978
 Alpha virt. eigenvalues --    4.35078   4.36343   4.36933   4.38574   4.39139
 Alpha virt. eigenvalues --    4.40412   4.40565   4.44698   4.44999   4.72867
 Alpha virt. eigenvalues --    4.73764   4.77302   4.77518   5.43417   5.57047
 Alpha virt. eigenvalues --    5.61259   5.70341   5.85484   6.03007   6.60865
 Alpha virt. eigenvalues --    6.61247   6.66855   6.67748   6.70159   6.73428
 Alpha virt. eigenvalues --    6.75166   6.75370   6.76064   6.76357   6.78902
 Alpha virt. eigenvalues --    6.79269   6.81044   6.81865   6.81893   6.83536
 Alpha virt. eigenvalues --    6.86396   6.87502   6.90241   6.90859   6.91701
 Alpha virt. eigenvalues --    6.92274   6.93733   6.96569   6.97475   6.97962
 Alpha virt. eigenvalues --    6.99175   7.00450   7.02483   7.21627   7.22077
 Alpha virt. eigenvalues --    7.62300   7.62607   7.64717   7.67143   7.72744
 Alpha virt. eigenvalues --    7.75154   8.47366   8.47762   8.48297   8.49100
 Alpha virt. eigenvalues --    8.49620   8.50532   8.51312   8.54725   8.59213
 Alpha virt. eigenvalues --    8.88331   9.81362   9.82666   9.84970   9.85365
 Alpha virt. eigenvalues --    9.88709   9.90196   9.91202   9.92145   9.94961
 Alpha virt. eigenvalues --    9.98248   9.99762  10.01997  10.03203  10.05876
 Alpha virt. eigenvalues --   10.06556  10.12722  10.21957  14.02404  14.09827
 Alpha virt. eigenvalues --   15.57203  16.69450  16.75330  16.89752  17.00911
 Alpha virt. eigenvalues --   17.01358  17.01855  17.02820  17.03252  17.04391
 Alpha virt. eigenvalues --   17.05107  17.06413  17.07052  17.09588  17.12304
 Alpha virt. eigenvalues --   17.13638  17.14033  17.15050  17.15305  17.16285
 Alpha virt. eigenvalues --   17.17372  17.18964  17.20967  17.22496  17.23278
 Alpha virt. eigenvalues --   17.32473  17.32980  17.37039  17.37914  20.94603
 Alpha virt. eigenvalues --   21.09735  21.25350  25.43440  25.53378  25.56466
 Alpha virt. eigenvalues --   26.05233  31.65436  31.67449  31.71818  31.72722
 Alpha virt. eigenvalues --   31.78331  42.90078  42.95813  42.99826  43.01700
 Alpha virt. eigenvalues --   43.12000  61.74742  61.80985  62.94675  78.02266
 Alpha virt. eigenvalues --   78.07453  78.20057  78.31522  82.09611  86.08166
 Alpha virt. eigenvalues --   86.20832  86.33001  89.26680  89.27183  89.28356
 Alpha virt. eigenvalues --   89.29240  89.29674  89.30439  89.32149  89.32658
 Alpha virt. eigenvalues --   89.34772  89.37956  89.38843  89.40334  89.40525
 Alpha virt. eigenvalues --   89.40933  89.42254  89.43248  89.44416  89.46096
 Alpha virt. eigenvalues --   89.48536  89.49346  89.60554  89.61025  89.64811
 Alpha virt. eigenvalues --   89.65743 121.79484 121.86463 121.89192 239.13091
 Alpha virt. eigenvalues --  257.21247 332.07332 332.13854 428.69623 428.79675
 Alpha virt. eigenvalues --  428.89173 431.63743 431.69252 431.82489 431.94325
 Alpha virt. eigenvalues --  590.17346 590.22741 590.24822 772.89632 839.53499
 Alpha virt. eigenvalues -- 2068.502922529.915015495.30906********************
 Alpha virt. eigenvalues -- **********
          Condensed to atoms (all electrons):
 Mulliken charges:
               1
     1  P   -0.376565
     2  P   -0.083130
     3  C    0.087841
     4  C   -0.461426
     5  C   -0.364757
     6  C    0.434029
     7  C   -0.120246
     8  C   -0.158634
     9  C    0.197691
    10  C   -0.328374
    11  C   -0.408784
    12  C    0.137026
    13  C   -0.154567
    14  C   -0.171502
    15  H    0.113732
    16  H    0.120339
    17  H    0.144407
    18  H    0.127757
    19  H    0.132968
    20  H    0.135271
    21  H    0.134742
    22  H    0.144002
    23  H    0.114362
    24  H    0.127790
    25  H    0.142991
    26  H    0.131742
    27  H    0.142533
    28  H    0.141480
    29  H    0.134289
    30  H    0.143155
    31  Pt   0.869769
    32  Sn   0.311321
    33  Cl  -0.223912
    34  Cl  -0.163886
    35  Cl  -0.254299
    36  Cl  -0.444303
    37  C   -0.738160
    38  C    0.379934
    39  C    0.197835
    40  C   -0.131258
    41  H    0.116514
    42  C   -0.155502
    43  H    0.126228
    44  C   -0.474997
    45  H    0.149526
    46  H    0.150296
    47  H    0.155996
    48  C   -0.684474
    49  C    0.240291
    50  C    0.295540
    51  C   -0.127352
    52  H    0.129919
    53  C   -0.149756
    54  H    0.118292
    55  C   -0.515429
    56  H    0.150479
    57  H    0.152578
    58  H    0.158648
 Sum of Mulliken charges =   0.00000
 Mulliken charges with hydrogens summed into heavy atoms:
               1
     1  P   -0.376565
     2  P   -0.083130
     3  C    0.201573
     4  C   -0.461426
     5  C   -0.364757
     6  C    0.554367
     7  C    0.284886
     8  C    0.255381
     9  C    0.312053
    10  C   -0.328374
    11  C   -0.408784
    12  C    0.264816
    13  C    0.262698
    14  C    0.247422
    31  Pt   0.869769
    32  Sn   0.311321
    33  Cl  -0.223912
    34  Cl  -0.163886
    35  Cl  -0.254299
    36  Cl  -0.444303
    37  C   -0.738160
    38  C    0.496448
    39  C    0.324063
    40  C    0.018268
    42  C   -0.005206
    44  C   -0.319001
    48  C   -0.684474
    49  C    0.370210
    50  C    0.413832
    51  C    0.023127
    53  C    0.002823
    55  C   -0.356781
 Electronic spatial extent (au):  <R**2>=          20511.3616
 Charge=              0.0000 electrons
 Dipole moment (field-independent basis, Debye):
    X=             -1.2536    Y=             -5.7351    Z=              4.2648  Tot=              7.2562
 Quadrupole moment (field-independent basis, Debye-Ang):
   XX=           -221.5134   YY=           -296.8459   ZZ=           -251.8491
   XY=              2.0806   XZ=             13.1895   YZ=             20.2568
 Traceless Quadrupole moment (field-independent basis, Debye-Ang):
   XX=             35.2228   YY=            -40.1098   ZZ=              4.8870
   XY=              2.0806   XZ=             13.1895   YZ=             20.2568
 Octapole moment (field-independent basis, Debye-Ang**2):
  XXX=            -76.7715  YYY=            -63.4486  ZZZ=             52.3276  XYY=             24.1339
  XXY=            -33.0670  XXZ=            -45.4054  XZZ=              3.8757  YZZ=            -28.9579
  YYZ=             -5.7219  XYZ=             -2.2153
 Hexadecapole moment (field-independent basis, Debye-Ang**3):
 XXXX=         -13286.8410 YYYY=          -7130.4553 ZZZZ=          -6058.1281 XXXY=             37.9954
 XXXZ=            353.6547 YYYX=            -69.6044 YYYZ=             70.8589 ZZZX=            -23.0505
 ZZZY=             44.3229 XXYY=          -3103.8637 XXZZ=          -2896.8711 YYZZ=          -2281.9365
 XXYZ=            371.9741 YYXZ=             19.6055 ZZXY=            -26.9075
 N-N= 9.092542352206D+03 E-N=-8.099121937964D+04  KE= 2.613861816444D+04
 Calculating spin-rotation constants.
 Leave Link  601 at Sat Aug 24 07:24:17 2019, MaxMem=   939524096 cpu:       314.2
 (Enter /scr/programas/g09/l9999.exe)
 1\1\GINC-NQTCM\SP\RPBEPBE\Gen\C24H26Cl4P2Pt1Sn1\NQTCM\24-Aug-2019\0\\#
 PBEPBE/gen scf=(maxcycle=500,conver=4) NMR=GIAO Scrf=(solvent=Dichloro
 methane)\\estrutura 60\\0,1\P,0,2.297967,-0.514589,0.352423\P,0,-2.404
 191,-0.734604,0.060666\C,0,3.232032,1.033782,0.44295\C,0,3.594053,1.27
 5736,1.726371\C,0,3.192535,0.200735,2.686395\C,0,2.551634,-0.844136,2.
 107892\C,0,4.30792,2.507866,2.193661\C,0,3.491188,0.308287,4.152164\C,
 0,-3.568938,0.146609,-1.002857\C,0,-4.34418,-0.738552,-1.674368\C,0,-4
 .069499,-2.17246,-1.338169\C,0,-3.087097,-2.342095,-0.422027\C,0,-5.39
 1224,-0.362827,-2.681966\C,0,-4.84799,-3.283064,-1.977918\H,0,3.423465
 ,1.693539,-0.402817\H,0,2.136899,-1.70734,2.626082\H,0,5.240672,2.2517
 58,2.722867\H,0,4.550349,3.174194,1.354369\H,0,3.682117,3.069089,2.908
 082\H,0,3.200849,1.292512,4.555112\H,0,2.966903,-0.471099,4.721315\H,0
 ,4.57365,0.194393,4.338779\H,0,-3.595292,1.227301,-1.132599\H,0,-2.717
 809,-3.293696,-0.042821\H,0,-6.350882,-0.864597,-2.466864\H,0,-5.56017
 8,0.724097,-2.697947\H,0,-5.086873,-0.681396,-3.696336\H,0,-4.8111,-3.
 216173,-3.076891\H,0,-4.463165,-4.266427,-1.675623\H,0,-5.912118,-3.22
 8641,-1.694705\Pt,0,-0.043104,-0.520847,-0.049021\Sn,0,0.012404,1.9152
 69,-0.933762\Cl,0,0.484149,3.656231,0.672915\Cl,0,-1.800567,3.002723,-
 2.104073\Cl,0,1.737175,2.336701,-2.595559\Cl,0,0.098467,-2.850581,0.70
 8385\C,0,-2.890881,-0.40824,1.807328\C,0,-2.314885,-1.174573,2.837893\
 C,0,-3.802181,0.611512,2.128129\C,0,-2.658847,-0.923931,4.168906\H,0,-
 1.591605,-1.957444,2.597482\C,0,-4.132964,0.862526,3.464964\H,0,-4.257
 643,1.215558,1.341484\C,0,-3.563288,0.09608,4.485725\H,0,-2.209447,-1.
 52641,4.962499\H,0,-4.838347,1.662284,3.704752\H,0,-3.82224,0.296018,5
 .529235\C,0,3.277647,-1.668837,-0.676476\C,0,3.627984,-2.947838,-0.209
 891\C,0,3.679427,-1.257672,-1.961124\C,0,4.387219,-3.800804,-1.017433\
 H,0,3.310055,-3.282691,0.779912\C,0,4.439606,-2.11353,-2.760243\H,0,3.
 398972,-0.268894,-2.340541\C,0,4.796034,-3.383605,-2.291198\H,0,4.6604
 95,-4.792976,-0.647803\H,0,4.755785,-1.783352,-3.755286\H,0,5.393147,-
 4.051173,-2.916949\\Version=EM64L-G09RevD.01\State=1-A\HF=-26542.87481
 51\RMSD=4.922e-05\Dipole=-0.4931984,-2.2563785,1.6779066\Quadrupole=26
 .1872639,-29.8206619,3.633398,1.5468609,9.8060472,15.0604058\PG=C01 [X
 (C24H26Cl4P2Pt1Sn1)]\\@


 ADAM SMITH SAID, "THE REAL PRICE OF ANYTHING IS THE TOIL AND TROUBLE
 OF ACQUIRING IT."  BUT IN ALL UNDERTAKINGS WITH NATURE WE SHOULD FIRST
 READ CAREFULLY THE SMALL PRINT IN THE CONTRACT. THIS MIGHT DISCLOSE
 THAT THE REAL PRICE IS TO BE PAID BY THOSE WHO INHERIT THE DEPLETION
 AND DESPOILATION THAT FOLLOWS.
                               -- E. R. HARRISON IN "COSMOLOGY" (1980)
 Job cpu time:       0 days 19 hours 58 minutes 18.7 seconds.
 File lengths (MBytes):  RWF=   1293 Int=      0 D2E=      0 Chk=     92 Scr=      1
 Normal termination of Gaussian 09 at Sat Aug 24 07:24:17 2019.
