 Entering Gaussian System, Link 0=g09
 Input=estrutura111.com
 Output=estrutura111.log
 Initial command:
 /scr/programas/g09/l1.exe "/scr/nqtcm/Gau-14150.inp" -scrdir="/scr/nqtcm/"
 Entering Link 1 = /scr/programas/g09/l1.exe PID=     14152.
  
 Copyright (c) 1988,1990,1992,1993,1995,1998,2003,2009,2013,
            Gaussian, Inc.  All Rights Reserved.
  
 This is part of the Gaussian(R) 09 program.  It is based on
 the Gaussian(R) 03 system (copyright 2003, Gaussian, Inc.),
 the Gaussian(R) 98 system (copyright 1998, Gaussian, Inc.),
 the Gaussian(R) 94 system (copyright 1995, Gaussian, Inc.),
 the Gaussian 92(TM) system (copyright 1992, Gaussian, Inc.),
 the Gaussian 90(TM) system (copyright 1990, Gaussian, Inc.),
 the Gaussian 88(TM) system (copyright 1988, Gaussian, Inc.),
 the Gaussian 86(TM) system (copyright 1986, Carnegie Mellon
 University), and the Gaussian 82(TM) system (copyright 1983,
 Carnegie Mellon University). Gaussian is a federally registered
 trademark of Gaussian, Inc.
  
 This software contains proprietary and confidential information,
 including trade secrets, belonging to Gaussian, Inc.
  
 This software is provided under written license and may be
 used, copied, transmitted, or stored only in accord with that
 written license.
  
 The following legend is applicable only to US Government
 contracts under FAR:
  
                    RESTRICTED RIGHTS LEGEND
  
 Use, reproduction and disclosure by the US Government is
 subject to restrictions as set forth in subparagraphs (a)
 and (c) of the Commercial Computer Software - Restricted
 Rights clause in FAR 52.227-19.
  
 Gaussian, Inc.
 340 Quinnipiac St., Bldg. 40, Wallingford CT 06492
  
  
 ---------------------------------------------------------------
 Warning -- This program may not be used in any manner that
 competes with the business of Gaussian, Inc. or will provide
 assistance to any competitor of Gaussian, Inc.  The licensee
 of this program is prohibited from giving any competitor of
 Gaussian, Inc. access to this program.  By using this program,
 the user acknowledges that Gaussian, Inc. is engaged in the
 business of creating and licensing software in the field of
 computational chemistry and represents and warrants to the
 licensee that it is not a competitor of Gaussian, Inc. and that
 it will not use this program in any manner prohibited above.
 ---------------------------------------------------------------
  

 Cite this work as:
 Gaussian 09, Revision D.01,
 M. J. Frisch, G. W. Trucks, H. B. Schlegel, G. E. Scuseria, 
 M. A. Robb, J. R. Cheeseman, G. Scalmani, V. Barone, B. Mennucci, 
 G. A. Petersson, H. Nakatsuji, M. Caricato, X. Li, H. P. Hratchian, 
 A. F. Izmaylov, J. Bloino, G. Zheng, J. L. Sonnenberg, M. Hada, 
 M. Ehara, K. Toyota, R. Fukuda, J. Hasegawa, M. Ishida, T. Nakajima, 
 Y. Honda, O. Kitao, H. Nakai, T. Vreven, J. A. Montgomery, Jr., 
 J. E. Peralta, F. Ogliaro, M. Bearpark, J. J. Heyd, E. Brothers, 
 K. N. Kudin, V. N. Staroverov, T. Keith, R. Kobayashi, J. Normand, 
 K. Raghavachari, A. Rendell, J. C. Burant, S. S. Iyengar, J. Tomasi, 
 M. Cossi, N. Rega, J. M. Millam, M. Klene, J. E. Knox, J. B. Cross, 
 V. Bakken, C. Adamo, J. Jaramillo, R. Gomperts, R. E. Stratmann, 
 O. Yazyev, A. J. Austin, R. Cammi, C. Pomelli, J. W. Ochterski, 
 R. L. Martin, K. Morokuma, V. G. Zakrzewski, G. A. Voth, 
 P. Salvador, J. J. Dannenberg, S. Dapprich, A. D. Daniels, 
 O. Farkas, J. B. Foresman, J. V. Ortiz, J. Cioslowski, 
 and D. J. Fox, Gaussian, Inc., Wallingford CT, 2013.
 
 ******************************************
 Gaussian 09:  EM64L-G09RevD.01 24-Apr-2013
                 1-Dec-2019 
 ******************************************
 %mem=7Gb
 %nproc=4
 Will use up to    4 processors via shared memory.
 ----------------------------------------------------------------------
 #PBEPBE/gen scf=(maxcycle=500,conver=3) NMR=GIAO Scrf=(solvent=Dichlor
 omethane)
 ----------------------------------------------------------------------
 1/38=1/1;
 2/12=2,17=6,18=5,40=1/2;
 3/5=7,11=2,16=1,25=1,30=1,70=2201,72=9,74=1009/1,2,8,3;
 4//1;
 5/5=2,6=3,7=500,38=5,53=9/2;
 8/6=1,10=90,11=11/1;
 10/13=100,45=16/2;
 6/7=2,8=2,9=2,10=2,28=1/1;
 99/9=1/99;
 Leave Link    1 at Sun Dec  1 11:42:25 2019, MaxMem=   939524096 cpu:         0.2
 (Enter /scr/programas/g09/l101.exe)
 -------------
 estrutura 111
 -------------
 Symbolic Z-matrix:
 Charge =  0 Multiplicity = 1
 Pt                    0.03046   0.78661  -0.02915 
 P                     2.44434   0.71324   0.005 
 C                     3.44674  -0.83656  -0.19155 
 C                     4.17715  -1.41491   0.85849 
 C                     3.5436   -1.39926  -1.47666 
 C                     4.99246  -2.52752   0.62476 
 H                     4.12795  -0.99772   1.86397 
 C                     4.35873  -2.50909  -1.70697 
 H                     2.99265  -0.96307  -2.31196 
 C                     5.08805  -3.07577  -0.65676 
 H                     5.55896  -2.96157   1.45239 
 H                     4.42282  -2.93101  -2.71293 
 H                     5.73105  -3.94078  -0.83849 
 C                     2.97897   1.39927   1.63083 
 C                     3.79912   2.53132   1.75267 
 C                     2.49334   0.77578   2.795 
 C                     4.1432    3.01813   3.01826 
 H                     4.16248   3.04824   0.86426 
 C                     2.84422   1.26243   4.05678 
 H                     1.83859  -0.09663   2.71881 
 C                     3.67205   2.38516   4.17115 
 H                     4.78055   3.90288   3.09757 
 H                     2.46372   0.76564   4.95266 
 H                     3.9426    2.76761   5.15848 
 C                     3.22611   1.72927  -1.32535 
 C                     4.63057   1.80743  -1.39846 
 C                     2.45697   2.35657  -2.31614 
 C                     5.24754   2.52512  -2.42463 
 H                     5.25071   1.29496  -0.66035 
 C                     3.0791    3.06371  -3.35135 
 H                     1.3695    2.29648  -2.27763 
 C                     4.47221   3.1563   -3.40374 
 H                     6.33843   2.58056  -2.465 
 H                     2.46752   3.54473  -4.11853 
 H                     4.9558    3.71287  -4.21055 
 Sn                   -0.38964  -1.82254  -0.0435 
 P                    -2.34785   1.06691  -0.06864 
 C                    -3.04124   2.77977  -0.04558 
 C                    -3.17647   3.4962   -1.2475 
 C                    -3.42528   3.38754   1.1603 
 C                    -3.70057   4.79125  -1.2414 
 H                    -2.87942   3.04527  -2.19639 
 C                    -3.94906   4.68406   1.1615 
 H                    -3.32187   2.85362   2.10619 
 C                    -4.09044   5.38772  -0.03791 
 H                    -3.80632   5.3351   -2.18334 
 H                    -4.24924   5.1428    2.10662 
 H                    -4.50422   6.39938  -0.0352 
 C                    -3.07704   0.38659  -1.62716 
 C                    -4.46422   0.31723  -1.86214 
 C                    -2.20139   0.02232  -2.66555 
 C                    -4.95433  -0.15809  -3.08036 
 H                    -5.18016   0.65383  -1.11236 
 C                    -2.69472  -0.43284  -3.89343 
 H                    -1.1223    0.10896  -2.5212 
 C                    -4.07157  -0.53692  -4.09833 
 H                    -6.03375  -0.2207   -3.23709 
 H                    -1.99473  -0.70474  -4.6867 
 H                    -4.45905  -0.90065  -5.05329 
 C                    -3.10878   0.3004    1.43598 
 C                    -4.45811  -0.08426   1.5324 
 C                    -2.29074   0.1773    2.57439 
 C                    -4.96813  -0.59216   2.7296 
 H                    -5.12847   0.0006    0.67974 
 C                    -2.806    -0.32302   3.77454 
 H                    -1.24062   0.4753    2.52609 
 C                    -4.14521  -0.71247   3.85436 
 H                    -6.01761  -0.89236   2.78162 
 H                    -2.15282  -0.40954   4.64585 
 H                    -4.54839  -1.10779   4.79001 
 Br                    0.31782   3.35136   0.29219 
 Br                    0.4898   -3.05058  -2.17153 
 Br                    0.93862  -2.89353   1.93931 
 C                    -2.34812  -2.83462   0.14303 
 H                    -2.66134  -2.65225   1.18276 
 H                    -2.99636  -2.22913  -0.50812 
 C                    -2.45036  -4.31643  -0.22659 
 H                    -3.52596  -4.54754  -0.35566 
 H                    -1.99016  -4.49697  -1.21384 
 C                    -1.86842  -5.29542   0.79872 
 H                    -0.78768  -5.11299   0.91769 
 H                    -2.31699  -5.08677   1.78752 
 C                    -2.10224  -6.76167   0.43225 
 H                    -1.61829  -7.01961  -0.52492 
 H                    -1.69531  -7.4373    1.20181 
 H                    -3.17809  -6.98347   0.32929 
 
 NAtoms=     86 NQM=       86 NQMF=       0 NMMI=      0 NMMIF=      0
                NMic=       0 NMicF=      0.
                    Isotopes and Nuclear Properties:
 (Nuclear quadrupole moments (NQMom) in fm**2, nuclear magnetic moments (NMagM)
  in nuclear magnetons)

  Atom         1           2           3           4           5           6           7           8           9          10
 IAtWgt=         195          31          12          12          12          12           1          12           1          12
 AtmWgt= 194.9648000  30.9737634  12.0000000  12.0000000  12.0000000  12.0000000   1.0078250  12.0000000   1.0078250  12.0000000
 NucSpn=           1           1           0           0           0           0           1           0           1           0
 AtZEff=   0.0000000   0.0000000   0.0000000   0.0000000   0.0000000   0.0000000   0.0000000   0.0000000   0.0000000   0.0000000
 NQMom=    0.0000000   0.0000000   0.0000000   0.0000000   0.0000000   0.0000000   0.0000000   0.0000000   0.0000000   0.0000000
 NMagM=    0.6095000   1.1316000   0.0000000   0.0000000   0.0000000   0.0000000   2.7928460   0.0000000   2.7928460   0.0000000
 AtZNuc=  78.0000000  15.0000000   6.0000000   6.0000000   6.0000000   6.0000000   1.0000000   6.0000000   1.0000000   6.0000000

  Atom        11          12          13          14          15          16          17          18          19          20
 IAtWgt=           1           1           1          12          12          12          12           1          12           1
 AtmWgt=   1.0078250   1.0078250   1.0078250  12.0000000  12.0000000  12.0000000  12.0000000   1.0078250  12.0000000   1.0078250
 NucSpn=           1           1           1           0           0           0           0           1           0           1
 AtZEff=   0.0000000   0.0000000   0.0000000   0.0000000   0.0000000   0.0000000   0.0000000   0.0000000   0.0000000   0.0000000
 NQMom=    0.0000000   0.0000000   0.0000000   0.0000000   0.0000000   0.0000000   0.0000000   0.0000000   0.0000000   0.0000000
 NMagM=    2.7928460   2.7928460   2.7928460   0.0000000   0.0000000   0.0000000   0.0000000   2.7928460   0.0000000   2.7928460
 AtZNuc=   1.0000000   1.0000000   1.0000000   6.0000000   6.0000000   6.0000000   6.0000000   1.0000000   6.0000000   1.0000000

  Atom        21          22          23          24          25          26          27          28          29          30
 IAtWgt=          12           1           1           1          12          12          12          12           1          12
 AtmWgt=  12.0000000   1.0078250   1.0078250   1.0078250  12.0000000  12.0000000  12.0000000  12.0000000   1.0078250  12.0000000
 NucSpn=           0           1           1           1           0           0           0           0           1           0
 AtZEff=   0.0000000   0.0000000   0.0000000   0.0000000   0.0000000   0.0000000   0.0000000   0.0000000   0.0000000   0.0000000
 NQMom=    0.0000000   0.0000000   0.0000000   0.0000000   0.0000000   0.0000000   0.0000000   0.0000000   0.0000000   0.0000000
 NMagM=    0.0000000   2.7928460   2.7928460   2.7928460   0.0000000   0.0000000   0.0000000   0.0000000   2.7928460   0.0000000
 AtZNuc=   6.0000000   1.0000000   1.0000000   1.0000000   6.0000000   6.0000000   6.0000000   6.0000000   1.0000000   6.0000000

  Atom        31          32          33          34          35          36          37          38          39          40
 IAtWgt=           1          12           1           1           1         118          31          12          12          12
 AtmWgt=   1.0078250  12.0000000   1.0078250   1.0078250   1.0078250 117.9018000  30.9737634  12.0000000  12.0000000  12.0000000
 NucSpn=           1           0           1           1           1           0           1           0           0           0
 AtZEff=   0.0000000   0.0000000   0.0000000   0.0000000   0.0000000   0.0000000   0.0000000   0.0000000   0.0000000   0.0000000
 NQMom=    0.0000000   0.0000000   0.0000000   0.0000000   0.0000000   0.0000000   0.0000000   0.0000000   0.0000000   0.0000000
 NMagM=    2.7928460   0.0000000   2.7928460   2.7928460   2.7928460   0.0000000   1.1316000   0.0000000   0.0000000   0.0000000
 AtZNuc=   1.0000000   6.0000000   1.0000000   1.0000000   1.0000000  50.0000000  15.0000000   6.0000000   6.0000000   6.0000000

  Atom        41          42          43          44          45          46          47          48          49          50
 IAtWgt=          12           1          12           1          12           1           1           1          12          12
 AtmWgt=  12.0000000   1.0078250  12.0000000   1.0078250  12.0000000   1.0078250   1.0078250   1.0078250  12.0000000  12.0000000
 NucSpn=           0           1           0           1           0           1           1           1           0           0
 AtZEff=   0.0000000   0.0000000   0.0000000   0.0000000   0.0000000   0.0000000   0.0000000   0.0000000   0.0000000   0.0000000
 NQMom=    0.0000000   0.0000000   0.0000000   0.0000000   0.0000000   0.0000000   0.0000000   0.0000000   0.0000000   0.0000000
 NMagM=    0.0000000   2.7928460   0.0000000   2.7928460   0.0000000   2.7928460   2.7928460   2.7928460   0.0000000   0.0000000
 AtZNuc=   6.0000000   1.0000000   6.0000000   1.0000000   6.0000000   1.0000000   1.0000000   1.0000000   6.0000000   6.0000000

  Atom        51          52          53          54          55          56          57          58          59          60
 IAtWgt=          12          12           1          12           1          12           1           1           1          12
 AtmWgt=  12.0000000  12.0000000   1.0078250  12.0000000   1.0078250  12.0000000   1.0078250   1.0078250   1.0078250  12.0000000
 NucSpn=           0           0           1           0           1           0           1           1           1           0
 AtZEff=   0.0000000   0.0000000   0.0000000   0.0000000   0.0000000   0.0000000   0.0000000   0.0000000   0.0000000   0.0000000
 NQMom=    0.0000000   0.0000000   0.0000000   0.0000000   0.0000000   0.0000000   0.0000000   0.0000000   0.0000000   0.0000000
 NMagM=    0.0000000   0.0000000   2.7928460   0.0000000   2.7928460   0.0000000   2.7928460   2.7928460   2.7928460   0.0000000
 AtZNuc=   6.0000000   6.0000000   1.0000000   6.0000000   1.0000000   6.0000000   1.0000000   1.0000000   1.0000000   6.0000000

  Atom        61          62          63          64          65          66          67          68          69          70
 IAtWgt=          12          12          12           1          12           1          12           1           1           1
 AtmWgt=  12.0000000  12.0000000  12.0000000   1.0078250  12.0000000   1.0078250  12.0000000   1.0078250   1.0078250   1.0078250
 NucSpn=           0           0           0           1           0           1           0           1           1           1
 AtZEff=   0.0000000   0.0000000   0.0000000   0.0000000   0.0000000   0.0000000   0.0000000   0.0000000   0.0000000   0.0000000
 NQMom=    0.0000000   0.0000000   0.0000000   0.0000000   0.0000000   0.0000000   0.0000000   0.0000000   0.0000000   0.0000000
 NMagM=    0.0000000   0.0000000   0.0000000   2.7928460   0.0000000   2.7928460   0.0000000   2.7928460   2.7928460   2.7928460
 AtZNuc=   6.0000000   6.0000000   6.0000000   1.0000000   6.0000000   1.0000000   6.0000000   1.0000000   1.0000000   1.0000000

  Atom        71          72          73          74          75          76          77          78          79          80
 IAtWgt=          79          79          79          12           1           1          12           1           1          12
 AtmWgt=  78.9183361  78.9183361  78.9183361  12.0000000   1.0078250   1.0078250  12.0000000   1.0078250   1.0078250  12.0000000
 NucSpn=           3           3           3           0           1           1           0           1           1           0
 AtZEff=   0.0000000   0.0000000   0.0000000   0.0000000   0.0000000   0.0000000   0.0000000   0.0000000   0.0000000   0.0000000
 NQMom=   31.3000000  31.3000000  31.3000000   0.0000000   0.0000000   0.0000000   0.0000000   0.0000000   0.0000000   0.0000000
 NMagM=    2.1063990   2.1063990   2.1063990   0.0000000   2.7928460   2.7928460   0.0000000   2.7928460   2.7928460   0.0000000
 AtZNuc=  35.0000000  35.0000000  35.0000000   6.0000000   1.0000000   1.0000000   6.0000000   1.0000000   1.0000000   6.0000000

  Atom        81          82          83          84          85          86
 IAtWgt=           1           1          12           1           1           1
 AtmWgt=   1.0078250   1.0078250  12.0000000   1.0078250   1.0078250   1.0078250
 NucSpn=           1           1           0           1           1           1
 AtZEff=   0.0000000   0.0000000   0.0000000   0.0000000   0.0000000   0.0000000
 NQMom=    0.0000000   0.0000000   0.0000000   0.0000000   0.0000000   0.0000000
 NMagM=    2.7928460   2.7928460   0.0000000   2.7928460   2.7928460   2.7928460
 AtZNuc=   1.0000000   1.0000000   6.0000000   1.0000000   1.0000000   1.0000000
 Leave Link  101 at Sun Dec  1 11:42:25 2019, MaxMem=   939524096 cpu:         0.6
 (Enter /scr/programas/g09/l202.exe)
 Stoichiometry    C40H39Br3P2PtSn
 Framework group  C1[X(C40H39Br3P2PtSn)]
 Deg. of freedom   252
 Full point group                 C1      NOp   1
 Largest Abelian subgroup         C1      NOp   1
 Largest concise Abelian subgroup C1      NOp   1
                         Standard orientation:                         
 ---------------------------------------------------------------------
 Center     Atomic      Atomic             Coordinates (Angstroms)
 Number     Number       Type             X           Y           Z
 ---------------------------------------------------------------------
      1         78           0       -0.030457   -0.786610   -0.029152
      2         15           0       -2.444342   -0.713238    0.004998
      3          6           0       -3.446744    0.836563   -0.191552
      4          6           0       -4.177150    1.414908    0.858486
      5          6           0       -3.543597    1.399256   -1.476659
      6          6           0       -4.992458    2.527526    0.624759
      7          1           0       -4.127950    0.997723    1.863969
      8          6           0       -4.358732    2.509096   -1.706966
      9          1           0       -2.992653    0.963070   -2.311962
     10          6           0       -5.088044    3.075775   -0.656757
     11          1           0       -5.558960    2.961568    1.452393
     12          1           0       -4.422823    2.931011   -2.712933
     13          1           0       -5.731048    3.940783   -0.838489
     14          6           0       -2.978969   -1.399272    1.630829
     15          6           0       -3.799122   -2.531323    1.752666
     16          6           0       -2.493343   -0.775775    2.794996
     17          6           0       -4.143205   -3.018126    3.018262
     18          1           0       -4.162482   -3.048238    0.864260
     19          6           0       -2.844221   -1.262429    4.056783
     20          1           0       -1.838587    0.096626    2.718810
     21          6           0       -3.672052   -2.385162    4.171153
     22          1           0       -4.780555   -3.902880    3.097570
     23          1           0       -2.463719   -0.765634    4.952663
     24          1           0       -3.942601   -2.767611    5.158475
     25          6           0       -3.226107   -1.729264   -1.325352
     26          6           0       -4.630566   -1.807426   -1.398462
     27          6           0       -2.456971   -2.356569   -2.316135
     28          6           0       -5.247546   -2.525120   -2.424626
     29          1           0       -5.250709   -1.294956   -0.660348
     30          6           0       -3.079100   -3.063708   -3.351354
     31          1           0       -1.369500   -2.296480   -2.277626
     32          6           0       -4.472212   -3.156299   -3.403735
     33          1           0       -6.338434   -2.580556   -2.465002
     34          1           0       -2.467516   -3.544732   -4.118527
     35          1           0       -4.955805   -3.712863   -4.210553
     36         50           0        0.389638    1.822535   -0.043498
     37         15           0        2.347848   -1.066915   -0.068639
     38          6           0        3.041237   -2.779771   -0.045577
     39          6           0        3.176472   -3.496199   -1.247504
     40          6           0        3.425281   -3.387541    1.160297
     41          6           0        3.700563   -4.791247   -1.241396
     42          1           0        2.879421   -3.045267   -2.196388
     43          6           0        3.949054   -4.684058    1.161503
     44          1           0        3.321865   -2.853623    2.106194
     45          6           0        4.090441   -5.387717   -0.037908
     46          1           0        3.806315   -5.335104   -2.183342
     47          1           0        4.249239   -5.142806    2.106621
     48          1           0        4.504222   -6.399377   -0.035200
     49          6           0        3.077036   -0.386586   -1.627158
     50          6           0        4.464221   -0.317235   -1.862140
     51          6           0        2.201392   -0.022322   -2.665554
     52          6           0        4.954330    0.158091   -3.080361
     53          1           0        5.180159   -0.653836   -1.112358
     54          6           0        2.694718    0.432839   -3.893432
     55          1           0        1.122303   -0.108964   -2.521203
     56          6           0        4.071567    0.536921   -4.098329
     57          1           0        6.033751    0.220695   -3.237094
     58          1           0        1.994734    0.704736   -4.686695
     59          1           0        4.459051    0.900644   -5.053293
     60          6           0        3.108779   -0.300398    1.435981
     61          6           0        4.458106    0.084262    1.532402
     62          6           0        2.290735   -0.177296    2.574385
     63          6           0        4.968132    0.592157    2.729602
     64          1           0        5.128471   -0.000604    0.679741
     65          6           0        2.805995    0.323016    3.774542
     66          1           0        1.240624   -0.475299    2.526094
     67          6           0        4.145209    0.712472    3.854364
     68          1           0        6.017609    0.892356    2.781617
     69          1           0        2.152824    0.409541    4.645852
     70          1           0        4.548393    1.107785    4.790007
     71         35           0       -0.317824   -3.351361    0.292193
     72         35           0       -0.489795    3.050580   -2.171534
     73         35           0       -0.938617    2.893534    1.939307
     74          6           0        2.348120    2.834614    0.143028
     75          1           0        2.661344    2.652245    1.182759
     76          1           0        2.996360    2.229127   -0.508122
     77          6           0        2.450360    4.316430   -0.226585
     78          1           0        3.525959    4.547542   -0.355660
     79          1           0        1.990158    4.496968   -1.213839
     80          6           0        1.868423    5.295415    0.798722
     81          1           0        0.787677    5.112988    0.917694
     82          1           0        2.316989    5.086772    1.787516
     83          6           0        2.102240    6.761671    0.432249
     84          1           0        1.618291    7.019612   -0.524916
     85          1           0        1.695313    7.437295    1.201809
     86          1           0        3.178095    6.983469    0.329292
 ---------------------------------------------------------------------
 Rotational constants (GHZ):      0.0487164      0.0459073      0.0350578
 Leave Link  202 at Sun Dec  1 11:42:25 2019, MaxMem=   939524096 cpu:         0.0
 (Enter /scr/programas/g09/l301.exe)
 General basis read from cards:  (5D, 7F)
 Centers:       7      9     11     12     13     18     20     22     23     24
 Centers:      29     31     33     34     35     42     44     46     47     48
 Centers:      53     55     57     58     59     64     66     68     69     70
 Centers:      75     76     78     79     81     82     84     85     86
 S 5 1.00
     Exponent=  2.8295215633D+02 Coefficients=  4.3000000000D-04
     Exponent=  8.7062201949D+01 Coefficients=  5.1000000000D-04
     Exponent=  2.6788369830D+01 Coefficients=  6.1600000000D-03
     Exponent=  8.2425753324D+00 Coefficients=  1.3030000000D-02
     Exponent=  2.5361770254D+00 Coefficients=  9.9490000000D-02
 S 1 1.00
     Exponent=  7.8036216165D-01 Coefficients=  1.0000000000D+00
 S 1 1.00
     Exponent=  2.4011143435D-01 Coefficients=  1.0000000000D+00
 P 1 1.00
     Exponent=  8.8150000000D-01 Coefficients=  1.0000000000D+00
 P 1 1.00
     Exponent=  1.7989200000D-01 Coefficients=  1.0000000000D+00
 ****
 Centers:       3      4      5      6      8     10     14     15     16     17
 Centers:      19     21     25     26     27     28     30     32     38     39
 Centers:      40     41     43     45     49     50     51     52     54     56
 Centers:      60     61     62     63     65     67     74     77     80     83
 S 6 1.00
     Exponent=  8.8461235339D+03 Coefficients=  5.3000000000D-04
     Exponent=  2.9487078446D+03 Coefficients=  7.7000000000D-04
     Exponent=  9.8290261488D+02 Coefficients=  4.0500000000D-03
     Exponent=  3.2763420496D+02 Coefficients=  1.4030000000D-02
     Exponent=  1.0921140165D+02 Coefficients=  5.3450000000D-02
     Exponent=  3.6403800551D+01 Coefficients=  1.7027000000D-01
 S 1 1.00
     Exponent=  1.2134600184D+01 Coefficients=  1.0000000000D+00
 S 1 1.00
     Exponent=  4.0448667279D+00 Coefficients=  1.0000000000D+00
 S 1 1.00
     Exponent=  1.3482889093D+00 Coefficients=  1.0000000000D+00
 S 1 1.00
     Exponent=  4.4942963643D-01 Coefficients=  1.0000000000D+00
 S 1 1.00
     Exponent=  1.4980987881D-01 Coefficients=  1.0000000000D+00
 P 4 1.00
     Exponent=  3.7294093393D+01 Coefficients=  3.9600000000D-03
     Exponent=  1.1475105659D+01 Coefficients=  1.8890000000D-02
     Exponent=  3.5308017414D+00 Coefficients=  9.4610000000D-02
     Exponent=  1.0864005358D+00 Coefficients=  3.1889000000D-01
 P 1 1.00
     Exponent=  3.3427708794D-01 Coefficients=  1.0000000000D+00
 P 1 1.00
     Exponent=  1.0285448860D-01 Coefficients=  1.0000000000D+00
 D 1 1.00
     Exponent=  4.7750000000D-01 Coefficients=  1.0000000000D+00
 D 1 1.00
     Exponent=  1.1998000000D-01 Coefficients=  1.0000000000D+00
 ****
 Centers:       2     37
 S 7 1.00
     Exponent=  5.9538004301D+04 Coefficients=  9.5000000000D-04
     Exponent=  2.1650183382D+04 Coefficients=  6.1000000000D-04
     Exponent=  7.8727939572D+03 Coefficients=  3.7500000000D-03
     Exponent=  2.8628341663D+03 Coefficients=  9.6300000000D-03
     Exponent=  1.0410306059D+03 Coefficients=  3.2430000000D-02
     Exponent=  3.7855658397D+02 Coefficients=  9.9500000000D-02
     Exponent=  1.3765693962D+02 Coefficients=  2.6570000000D-01
 S 1 1.00
     Exponent=  5.0057068954D+01 Coefficients=  1.0000000000D+00
 S 1 1.00
     Exponent=  1.8202570529D+01 Coefficients=  1.0000000000D+00
 S 1 1.00
     Exponent=  6.6191165560D+00 Coefficients=  1.0000000000D+00
 S 1 1.00
     Exponent=  2.4069514749D+00 Coefficients=  1.0000000000D+00
 S 1 1.00
     Exponent=  8.7525508178D-01 Coefficients=  1.0000000000D+00
 S 1 1.00
     Exponent=  3.1827457519D-01 Coefficients=  1.0000000000D+00
 S 1 1.00
     Exponent=  1.1573620916D-01 Coefficients=  1.0000000000D+00
 S 1 1.00
     Exponent=  4.2085894240D-02 Coefficients=  1.0000000000D+00
 P 5 1.00
     Exponent=  4.8799672315D+02 Coefficients=  2.1600000000D-03
     Exponent=  1.6266557438D+02 Coefficients=  9.7900000000D-03
     Exponent=  5.4221858128D+01 Coefficients=  5.4850000000D-02
     Exponent=  1.8073952709D+01 Coefficients=  2.1770000000D-01
     Exponent=  6.0246509031D+00 Coefficients=  4.8978000000D-01
 P 1 1.00
     Exponent=  2.0082169677D+00 Coefficients=  1.0000000000D+00
 P 1 1.00
     Exponent=  6.6940565590D-01 Coefficients=  1.0000000000D+00
 P 1 1.00
     Exponent=  2.2313521863D-01 Coefficients=  1.0000000000D+00
 P 1 1.00
     Exponent=  7.4378406211D-02 Coefficients=  1.0000000000D+00
 P 1 1.00
     Exponent=  2.4792802070D-02 Coefficients=  1.0000000000D+00
 D 1 1.00
     Exponent=  3.5395000000D-01 Coefficients=  1.0000000000D+00
 D 1 1.00
     Exponent=  8.9098000000D-02 Coefficients=  1.0000000000D+00
 ****
 Centers:      71     72     73
 S 7 1.00
     Exponent=  3.4867099512D+05 Coefficients=  2.4100000000D-03
     Exponent=  1.3946839805D+05 Coefficients=  1.2000000000D-04
     Exponent=  5.5787359218D+04 Coefficients=  5.8500000000D-03
     Exponent=  2.2314943687D+04 Coefficients=  8.2100000000D-03
     Exponent=  8.9259774750D+03 Coefficients=  2.4090000000D-02
     Exponent=  3.5703909900D+03 Coefficients=  5.7250000000D-02
     Exponent=  1.4281563960D+03 Coefficients=  1.4467000000D-01
 S 1 1.00
     Exponent=  5.7126255840D+02 Coefficients=  1.0000000000D+00
 S 1 1.00
     Exponent=  2.2850502336D+02 Coefficients=  1.0000000000D+00
 S 1 1.00
     Exponent=  9.1402009344D+01 Coefficients=  1.0000000000D+00
 S 1 1.00
     Exponent=  3.6560803737D+01 Coefficients=  1.0000000000D+00
 S 1 1.00
     Exponent=  1.4624321495D+01 Coefficients=  1.0000000000D+00
 S 1 1.00
     Exponent=  5.8497285980D+00 Coefficients=  1.0000000000D+00
 S 1 1.00
     Exponent=  2.3398914392D+00 Coefficients=  1.0000000000D+00
 S 1 1.00
     Exponent=  9.3595657568D-01 Coefficients=  1.0000000000D+00
 S 1 1.00
     Exponent=  3.7438263027D-01 Coefficients=  1.0000000000D+00
 S 1 1.00
     Exponent=  1.4975305211D-01 Coefficients=  1.0000000000D+00
 S 1 1.00
     Exponent=  5.9901220843D-02 Coefficients=  1.0000000000D+00
 P 5 1.00
     Exponent=  4.2715043612D+03 Coefficients=  2.0900000000D-03
     Exponent=  1.5532743132D+03 Coefficients=  5.5700000000D-03
     Exponent=  5.6482702297D+02 Coefficients=  3.0250000000D-02
     Exponent=  2.0539164472D+02 Coefficients=  1.2196000000D-01
     Exponent=  7.4687870806D+01 Coefficients=  3.7861000000D-01
 P 1 1.00
     Exponent=  2.7159225748D+01 Coefficients=  1.0000000000D+00
 P 1 1.00
     Exponent=  9.8760820901D+00 Coefficients=  1.0000000000D+00
 P 1 1.00
     Exponent=  3.5913025782D+00 Coefficients=  1.0000000000D+00
 P 1 1.00
     Exponent=  1.3059282103D+00 Coefficients=  1.0000000000D+00
 P 1 1.00
     Exponent=  4.7488298555D-01 Coefficients=  1.0000000000D+00
 P 1 1.00
     Exponent=  1.7268472202D-01 Coefficients=  1.0000000000D+00
 P 1 1.00
     Exponent=  6.2794444370D-02 Coefficients=  1.0000000000D+00
 P 1 1.00
     Exponent=  2.2834343407D-02 Coefficients=  1.0000000000D+00
 D 4 1.00
     Exponent=  1.5776624282D+02 Coefficients=  7.9800000000D-03
     Exponent=  5.2588747607D+01 Coefficients=  4.9870000000D-02
     Exponent=  1.7529582536D+01 Coefficients=  2.2405000000D-01
     Exponent=  5.8431941786D+00 Coefficients=  4.4250000000D-01
 D 1 1.00
     Exponent=  1.9477313929D+00 Coefficients=  1.0000000000D+00
 D 1 1.00
     Exponent=  6.4924379762D-01 Coefficients=  1.0000000000D+00
 F 1 1.00
     Exponent=  1.6480000000D+00 Coefficients=  1.0000000000D+00
 F 1 1.00
     Exponent=  4.5490000000D-01 Coefficients=  1.0000000000D+00
 ****
 Centers:      36
 S 8 1.00
     Exponent=  7.5448214551D+05 Coefficients=  4.4300000000D-03
     Exponent=  3.3532539800D+05 Coefficients=  1.9800000000D-03
     Exponent=  1.4903351022D+05 Coefficients=  9.0500000000D-03
     Exponent=  6.6237115655D+04 Coefficients=  4.8700000000D-03
     Exponent=  2.9438718069D+04 Coefficients=  2.0770000000D-02
     Exponent=  1.3083874697D+04 Coefficients=  3.2900000000D-02
     Exponent=  5.8150554210D+03 Coefficients=  7.7010000000D-02
     Exponent=  2.5844690760D+03 Coefficients=  1.5160000000D-01
 S 1 1.00
     Exponent=  1.1486529227D+03 Coefficients=  1.0000000000D+00
 S 1 1.00
     Exponent=  5.1051241008D+02 Coefficients=  1.0000000000D+00
 S 1 1.00
     Exponent=  2.2689440448D+02 Coefficients=  1.0000000000D+00
 S 1 1.00
     Exponent=  1.0084195755D+02 Coefficients=  1.0000000000D+00
 S 1 1.00
     Exponent=  4.4818647798D+01 Coefficients=  1.0000000000D+00
 S 1 1.00
     Exponent=  1.9919399021D+01 Coefficients=  1.0000000000D+00
 S 1 1.00
     Exponent=  8.8530662317D+00 Coefficients=  1.0000000000D+00
 S 1 1.00
     Exponent=  3.9346961030D+00 Coefficients=  1.0000000000D+00
 S 1 1.00
     Exponent=  1.7487538235D+00 Coefficients=  1.0000000000D+00
 S 1 1.00
     Exponent=  7.7722392158D-01 Coefficients=  1.0000000000D+00
 S 1 1.00
     Exponent=  3.4543285403D-01 Coefficients=  1.0000000000D+00
 S 1 1.00
     Exponent=  1.5352571290D-01 Coefficients=  1.0000000000D+00
 S 1 1.00
     Exponent=  6.8233650180D-02 Coefficients=  1.0000000000D+00
 S 1 1.00
     Exponent=  1.3478251887D-02 Coefficients=  1.0000000000D+00
 P 5 1.00
     Exponent=  1.0090658304D+04 Coefficients=  2.7500000000D-03
     Exponent=  4.0362633217D+03 Coefficients=  4.1800000000D-03
     Exponent=  1.6145053287D+03 Coefficients=  2.0890000000D-02
     Exponent=  6.4580213147D+02 Coefficients=  7.1370000000D-02
     Exponent=  2.5832085259D+02 Coefficients=  2.2613000000D-01
 P 1 1.00
     Exponent=  1.0332834104D+02 Coefficients=  1.0000000000D+00
 P 1 1.00
     Exponent=  4.1331336414D+01 Coefficients=  1.0000000000D+00
 P 1 1.00
     Exponent=  1.6532534566D+01 Coefficients=  1.0000000000D+00
 P 1 1.00
     Exponent=  6.6130138263D+00 Coefficients=  1.0000000000D+00
 P 1 1.00
     Exponent=  2.6452055305D+00 Coefficients=  1.0000000000D+00
 P 1 1.00
     Exponent=  1.0580822122D+00 Coefficients=  1.0000000000D+00
 P 1 1.00
     Exponent=  4.2323288488D-01 Coefficients=  1.0000000000D+00
 P 1 1.00
     Exponent=  1.6929315395D-01 Coefficients=  1.0000000000D+00
 P 1 1.00
     Exponent=  6.7717261581D-02 Coefficients=  1.0000000000D+00
 P 1 1.00
     Exponent=  2.7086904632D-02 Coefficients=  1.0000000000D+00
 P 1 1.00
     Exponent=  1.0834761853D-02 Coefficients=  1.0000000000D+00
 D 4 1.00
     Exponent=  5.5430250651D+02 Coefficients=  4.3700000000D-03
     Exponent=  2.0156454782D+02 Coefficients=  2.5110000000D-02
     Exponent=  7.3296199207D+01 Coefficients=  1.3316000000D-01
     Exponent=  2.6653163348D+01 Coefficients=  3.8900000000D-01
 D 1 1.00
     Exponent=  9.6920593993D+00 Coefficients=  1.0000000000D+00
 D 1 1.00
     Exponent=  3.5243852361D+00 Coefficients=  1.0000000000D+00
 D 1 1.00
     Exponent=  1.2815946313D+00 Coefficients=  1.0000000000D+00
 D 1 1.00
     Exponent=  4.6603441139D-01 Coefficients=  1.0000000000D+00
 D 1 1.00
     Exponent=  1.6946705869D-01 Coefficients=  1.0000000000D+00
 F 1 1.00
     Exponent=  1.3140000000D+00 Coefficients=  1.0000000000D+00
 F 1 1.00
     Exponent=  1.9993000000D-01 Coefficients=  1.0000000000D+00
 ****
 Centers:       1
 S 9 1.00
     Exponent=  2.1644816090D+06 Coefficients=  1.2320000000D-02
     Exponent=  1.0822408045D+06 Coefficients=  1.2970000000D-02
     Exponent=  5.4112040224D+05 Coefficients=  2.6370000000D-02
     Exponent=  2.7056020112D+05 Coefficients=  9.0400000000D-03
     Exponent=  1.3528010056D+05 Coefficients=  3.4980000000D-02
     Exponent=  6.7640050280D+04 Coefficients=  1.2220000000D-02
     Exponent=  3.3820025140D+04 Coefficients=  6.0520000000D-02
     Exponent=  1.6910012570D+04 Coefficients=  6.4930000000D-02
     Exponent=  8.4550062850D+03 Coefficients=  1.3819000000D-01
 S 1 1.00
     Exponent=  4.2275031425D+03 Coefficients=  1.0000000000D+00
 S 1 1.00
     Exponent=  2.1137515713D+03 Coefficients=  1.0000000000D+00
 S 1 1.00
     Exponent=  1.0568757856D+03 Coefficients=  1.0000000000D+00
 S 1 1.00
     Exponent=  5.2843789281D+02 Coefficients=  1.0000000000D+00
 S 1 1.00
     Exponent=  2.6421894641D+02 Coefficients=  1.0000000000D+00
 S 1 1.00
     Exponent=  1.3210947320D+02 Coefficients=  1.0000000000D+00
 S 1 1.00
     Exponent=  6.6054736602D+01 Coefficients=  1.0000000000D+00
 S 1 1.00
     Exponent=  3.3027368301D+01 Coefficients=  1.0000000000D+00
 S 1 1.00
     Exponent=  1.6513684150D+01 Coefficients=  1.0000000000D+00
 S 1 1.00
     Exponent=  8.2568420752D+00 Coefficients=  1.0000000000D+00
 S 1 1.00
     Exponent=  4.1284210376D+00 Coefficients=  1.0000000000D+00
 S 1 1.00
     Exponent=  2.0642105188D+00 Coefficients=  1.0000000000D+00
 S 1 1.00
     Exponent=  1.0321052594D+00 Coefficients=  1.0000000000D+00
 S 1 1.00
     Exponent=  5.1605262970D-01 Coefficients=  1.0000000000D+00
 S 1 1.00
     Exponent=  2.5802631485D-01 Coefficients=  1.0000000000D+00
 S 1 1.00
     Exponent=  1.2901315743D-01 Coefficients=  1.0000000000D+00
 S 1 1.00
     Exponent=  6.4506578713D-02 Coefficients=  1.0000000000D+00
 P 7 1.00
     Exponent=  3.2357915258D+04 Coefficients=  5.0200000000D-03
     Exponent=  1.4381295670D+04 Coefficients=  2.0200000000D-03
     Exponent=  6.3916869645D+03 Coefficients=  1.8070000000D-02
     Exponent=  2.8407497620D+03 Coefficients=  3.6620000000D-02
     Exponent=  1.2625554498D+03 Coefficients=  1.1172000000D-01
     Exponent=  5.6113575545D+02 Coefficients=  2.5586000000D-01
     Exponent=  2.4939366909D+02 Coefficients=  4.2608000000D-01
 P 1 1.00
     Exponent=  1.1084163071D+02 Coefficients=  1.0000000000D+00
 P 1 1.00
     Exponent=  4.9262946981D+01 Coefficients=  1.0000000000D+00
 P 1 1.00
     Exponent=  2.1894643103D+01 Coefficients=  1.0000000000D+00
 P 1 1.00
     Exponent=  9.7309524900D+00 Coefficients=  1.0000000000D+00
 P 1 1.00
     Exponent=  4.3248677733D+00 Coefficients=  1.0000000000D+00
 P 1 1.00
     Exponent=  1.9221634548D+00 Coefficients=  1.0000000000D+00
 P 1 1.00
     Exponent=  8.5429486881D-01 Coefficients=  1.0000000000D+00
 P 1 1.00
     Exponent=  3.7968660836D-01 Coefficients=  1.0000000000D+00
 P 1 1.00
     Exponent=  1.6874960372D-01 Coefficients=  1.0000000000D+00
 P 1 1.00
     Exponent=  7.4999823874D-02 Coefficients=  1.0000000000D+00
 P 1 1.00
     Exponent=  3.3333255055D-02 Coefficients=  1.0000000000D+00
 D 5 1.00
     Exponent=  1.9119003508D+03 Coefficients=  4.3300000000D-03
     Exponent=  7.6476014031D+02 Coefficients=  1.7780000000D-02
     Exponent=  3.0590405613D+02 Coefficients=  8.9710000000D-02
     Exponent=  1.2236162245D+02 Coefficients=  3.1123000000D-01
     Exponent=  4.8944648980D+01 Coefficients=  5.3206000000D-01
 D 1 1.00
     Exponent=  1.9577859592D+01 Coefficients=  1.0000000000D+00
 D 1 1.00
     Exponent=  7.8311438368D+00 Coefficients=  1.0000000000D+00
 D 1 1.00
     Exponent=  3.1324575347D+00 Coefficients=  1.0000000000D+00
 D 1 1.00
     Exponent=  1.2529830139D+00 Coefficients=  1.0000000000D+00
 D 1 1.00
     Exponent=  5.0119320556D-01 Coefficients=  1.0000000000D+00
 D 1 1.00
     Exponent=  2.0047728222D-01 Coefficients=  1.0000000000D+00
 D 1 1.00
     Exponent=  8.0190912889D-02 Coefficients=  1.0000000000D+00
 D 1 1.00
     Exponent=  3.2076365156D-02 Coefficients=  1.0000000000D+00
 F 4 1.00
     Exponent=  8.2289680979D+01 Coefficients=  6.1870000000D-02
     Exponent=  2.9923520356D+01 Coefficients=  2.4823000000D-01
     Exponent=  1.0881280130D+01 Coefficients=  4.9956000000D-01
     Exponent=  3.9568291380D+00 Coefficients=  4.0380000000D-01
 F 1 1.00
     Exponent=  1.4388469593D+00 Coefficients=  1.0000000000D+00
 F 1 1.00
     Exponent=  5.2321707610D-01 Coefficients=  1.0000000000D+00
 G 1 1.00
     Exponent=  2.6700000000D+00 Coefficients=  1.0000000000D+00
 G 1 1.00
     Exponent=  9.0960000000D-01 Coefficients=  1.0000000000D+00
 ****
 Ernie: Thresh=  0.10000D-02 Tol=  0.10000D-05 Strict=F.
 There are  2015 symmetry adapted cartesian basis functions of A   symmetry.
 There are  1862 symmetry adapted basis functions of A   symmetry.
  1862 basis functions,  2992 primitive gaussians,  2015 cartesian basis functions
   271 alpha electrons      271 beta electrons
       nuclear repulsion energy     15772.2843648829 Hartrees.
 IExCor= 1009 DFT=T Ex=PBE Corr=PBE ExCW=0 ScaHFX=  0.000000
 ScaDFX=  1.000000  1.000000  1.000000  1.000000 ScalE2=  1.000000  1.000000
 IRadAn=      0 IRanWt=     -1 IRanGd=            0 ICorTp=0 IEmpDi=  4
 NAtoms=   86 NActive=   86 NUniq=   86 SFac= 1.00D+00 NAtFMM=   60 NAOKFM=T Big=T
 Integral buffers will be    131072 words long.
 Raffenetti 2 integral format.
 Two-electron integral symmetry is turned on.
 ------------------------------------------------------------------------------
 Polarizable Continuum Model (PCM)
 =================================
 Model                : PCM (using non-symmetric T matrix).
 Atomic radii         : UFF (Universal Force Field).
 Polarization charges : Total charges.
 Charge compensation  : None.
 Solution method      : On-the-fly selection.
 Cavity type          : Scaled VdW (van der Waals Surface) (Alpha=1.100).
 Cavity algorithm     : GePol (No added spheres)
                        Default sphere list used, NSphG=   86.
                        Lebedev-Laikov grids with approx.  5.0 points / Ang**2.
                        Smoothing algorithm: Karplus/York (Gamma=1.0000).
                        Polarization charges: spherical gaussians, with
                                              point-specific exponents (IZeta= 3).
                        Self-potential: point-specific (ISelfS= 7).
                        Self-field    : sphere-specific E.n sum rule (ISelfD= 2).
 Solvent              : Dichloromethane, Eps=   8.930000 Eps(inf)=   2.028346
 ------------------------------------------------------------------------------
 GePol: Number of generator spheres                  =      86
 GePol: Total number of spheres                      =      86
 GePol: Number of exposed spheres                    =      86 (100.00%)
 GePol: Number of points                             =    6486
 GePol: Average weight of points                     =       0.13
 GePol: Minimum weight of points                     =   0.79D-11
 GePol: Maximum weight of points                     =    0.21838
 GePol: Number of points with low weight             =     430
 GePol: Fraction of low-weight points (<1% of avg)   =       6.63%
 GePol: Cavity surface area                          =    823.180 Ang**2
 GePol: Cavity volume                                =   1014.288 Ang**3
 Leave Link  301 at Sun Dec  1 11:42:25 2019, MaxMem=   939524096 cpu:         1.0
 (Enter /scr/programas/g09/l302.exe)
 NPDir=0 NMtPBC=     1 NCelOv=     1 NCel=       1 NClECP=     1 NCelD=      1
         NCelK=      1 NCelE2=     1 NClLst=     1 CellRange=     0.0.
 One-electron integrals computed using PRISM.
 NBasis=  1862 RedAO= T EigKep=  1.47D-06  NBF=  1862
 NBsUse=  1862 1.00D-06 EigRej= -1.00D+00 NBFU=  1862
 Precomputing XC quadrature grid using
 IXCGrd= 4 IRadAn=           0 IRanWt=          -1 IRanGd=           0 AccXCQ= 0.00D+00.
 Defaulting to unpruned grid for atomic number  78.
 Defaulting to unpruned grid for atomic number  50.
 Generated NRdTot=       0 NPtTot=           0 NUsed=           0 NTot=          32
 NSgBfM=  1732  1736  1736  1736  1737 MxSgAt=    86 MxSgA2=    86.
 Leave Link  302 at Sun Dec  1 11:42:50 2019, MaxMem=   939524096 cpu:        92.9
 (Enter /scr/programas/g09/l308.exe)
 Leave Link  308 at Sun Dec  1 11:42:53 2019, MaxMem=   939524096 cpu:         6.2
 (Enter /scr/programas/g09/l303.exe)
 DipDrv:  MaxL=1.
 Leave Link  303 at Sun Dec  1 11:42:54 2019, MaxMem=   939524096 cpu:         3.6
 (Enter /scr/programas/g09/l401.exe)
 ExpMin= 1.08D-02 ExpMax= 2.16D+06 ExpMxC= 2.16D+06 IAcc=4 IRadAn=    199590 AccDes= 0.00D+00
 Harris functional with IExCor= 1009 and IRadAn=  199590 diagonalized for initial guess.
 HarFok:  IExCor= 1009 AccDes= 0.00D+00 IRadAn=    199590 IDoV= 1 UseB2=F ITyADJ=14
 ICtDFT=  3500011 ScaDFX=  1.000000  1.000000  1.000000  1.000000
 FoFCou: FMM=F IPFlag=           0 FMFlag=      100000 FMFlg1=        2001
         NFxFlg=           0 DoJE=T BraDBF=F KetDBF=T FulRan=T
         wScrn=  0.000000 ICntrl=     500 IOpCl=  0 I1Cent=   200000004 NGrid=           0
         NMat0=    1 NMatS0=      1 NMatT0=    0 NMatD0=    1 NMtDS0=    0 NMtDT0=    0
 Petite list used in FoFCou.
 Harris En= -33038.7932883843    
 JPrj=0 DoOrth=F DoCkMO=F.
 Leave Link  401 at Sun Dec  1 11:54:30 2019, MaxMem=   939524096 cpu:      2625.9
 (Enter /scr/programas/g09/l502.exe)
 Closed shell SCF:
 Using DIIS extrapolation, IDIIS=  1040.
 Integral symmetry usage will be decided dynamically.
 IVT=    12461741 IEndB=    12461741 NGot=   939524096 MDV=   931375596
 LenX=   931375596 LenY=   927313356
 Requested convergence on RMS density matrix=1.00D-03 within 500 cycles.
 Requested convergence on MAX density matrix=1.00D-01.
 Requested convergence on             energy=1.00D-01.
 No special actions if energy rises.
 Fock matrices will be formed incrementally for  20 cycles.

 Cycle   1  Pass 1  IDiag  1:
 FoFJK:  IHMeth= 1 ICntrl=     500 DoSepK=F KAlg= 0 I1Cent=   0 FoldK=F
 IRaf= 610000000 NMat=   1 IRICut=       1 DoRegI=T DoRafI=F ISym2E= 0.
 FoFCou: FMM=T IPFlag=           0 FMFlag=      100000 FMFlg1=        2001
         NFxFlg=           0 DoJE=T BraDBF=F KetDBF=F FulRan=T
         wScrn=  0.000000 ICntrl=     500 IOpCl=  0 I1Cent=           0 NGrid=           0
         NMat0=    1 NMatS0=      1 NMatT0=    0 NMatD0=    1 NMtDS0=    0 NMtDT0=    0
 Symmetry not used in FoFCou.
 FMM levels:  10  Number of levels for PrismC:   9
 Defaulting to unpruned grid for atomic number  78.
 Defaulting to unpruned grid for atomic number  78.
 Defaulting to unpruned grid for atomic number  78.
 Defaulting to unpruned grid for atomic number  78.
 Inv3:  Mode=1 IEnd=   126204588.
 Iteration    1 A*A^-1 deviation from unit magnitude is 1.24D-14 for   6399.
 Iteration    1 A*A^-1 deviation from orthogonality  is 1.10D-14 for   4915   1988.
 Iteration    1 A^-1*A deviation from unit magnitude is 1.73D-14 for   2331.
 Iteration    1 A^-1*A deviation from orthogonality  is 1.62D-09 for   5588   5583.
 Iteration    2 A*A^-1 deviation from unit magnitude is 1.07D-14 for   2394.
 Iteration    2 A*A^-1 deviation from orthogonality  is 1.07D-14 for   4355    148.
 Iteration    2 A^-1*A deviation from unit magnitude is 2.00D-15 for   4453.
 Iteration    2 A^-1*A deviation from orthogonality  is 8.13D-16 for   2959    194.
 E= -33017.9883979654    
 DIIS: error= 1.69D-01 at cycle   1 NSaved=   1.
 NSaved= 1 IEnMin= 1 EnMin= -33017.9883979654     IErMin= 1 ErrMin= 1.69D-01
 ErrMax= 1.69D-01  0.00D+00 EMaxC= 1.00D-01 BMatC= 3.41D+02 BMatP= 3.41D+02
 IDIUse=3 WtCom= 0.00D+00 WtEn= 1.00D+00
 Coeff-Com:  0.100D+01
 Coeff-En:   0.100D+01
 Coeff:      0.100D+01
 Gap=     0.788 Goal=   None    Shift=    0.000
 GapD=    0.788 DampG=2.000 DampE=0.125 DampFc=0.2500 IDamp=-1.
 Damping current iteration by 2.50D-01
 RMSDP=1.81D-02 MaxDP=5.08D+00              OVMax= 7.35D-01

 Cycle   2  Pass 1  IDiag  1:
 RMSU=  4.17D-03    CP:  1.13D+00
 E= -33019.7027008280     Delta-E=       -1.714302862674 Rises=F Damp=T
 DIIS: error= 1.13D-01 at cycle   2 NSaved=   2.
 NSaved= 2 IEnMin= 2 EnMin= -33019.7027008280     IErMin= 2 ErrMin= 1.13D-01
 ErrMax= 1.13D-01  0.00D+00 EMaxC= 1.00D-01 BMatC= 1.64D+02 BMatP= 3.41D+02
 IDIUse=3 WtCom= 0.00D+00 WtEn= 1.00D+00
 Coeff-Com: -0.196D+01 0.296D+01
 Coeff-En:   0.112D+00 0.888D+00
 Coeff:      0.112D+00 0.888D+00
 Gap=    -0.030 Goal=   None    Shift=    0.000
 RMSDP=9.00D-03 MaxDP=2.64D+00 DE=-1.71D+00 OVMax= 8.61D-01

 Cycle   3  Pass 1  IDiag  1:
 RMSU=  5.44D-03    CP:  7.07D-01  7.26D-03
 E= -33021.9379536251     Delta-E=       -2.235252797072 Rises=F Damp=F
 DIIS: error= 6.23D-02 at cycle   3 NSaved=   3.
 NSaved= 3 IEnMin= 3 EnMin= -33021.9379536251     IErMin= 3 ErrMin= 6.23D-02
 ErrMax= 6.23D-02  0.00D+00 EMaxC= 1.00D-01 BMatC= 1.28D+01 BMatP= 1.64D+02
 IDIUse=3 WtCom= 3.77D-01 WtEn= 6.23D-01
 EnCoef did   100 forward-backward iterations
 Coeff-Com:  0.877D+00-0.104D+01 0.116D+01
 Coeff-En:   0.244D+00 0.370D-02 0.753D+00
 Coeff:      0.482D+00-0.390D+00 0.908D+00
 Gap=     0.050 Goal=   None    Shift=    0.000
 RMSDP=1.27D-02 MaxDP=2.64D+00 DE=-2.24D+00 OVMax= 6.42D-01

 Cycle   4  Pass 1  IDiag  1:
 RMSU=  8.89D-03    CP:  1.17D+00  1.20D+00  2.68D-01
 E= -33013.7068905005     Delta-E=        8.231063124622 Rises=F Damp=F
 DIIS: error= 5.09D-02 at cycle   4 NSaved=   4.
 NSaved= 4 IEnMin= 3 EnMin= -33021.9379536251     IErMin= 4 ErrMin= 5.09D-02
 ErrMax= 5.09D-02  0.00D+00 EMaxC= 1.00D-01 BMatC= 1.12D+01 BMatP= 1.28D+01
 IDIUse=3 WtCom= 4.91D-01 WtEn= 5.09D-01
 EnCoef did     7 forward-backward iterations
 Coeff-Com:  0.551D+00-0.671D+00 0.757D+00 0.364D+00
 Coeff-En:   0.166D+00 0.000D+00 0.716D+00 0.118D+00
 Coeff:      0.355D+00-0.330D+00 0.736D+00 0.239D+00
 Gap=     0.083 Goal=   None    Shift=    0.000
 RMSDP=1.09D-02 MaxDP=2.47D+00 DE= 8.23D+00 OVMax= 5.32D-01

 Cycle   5  Pass 1  IDiag  1:
 RMSU=  2.16D-03    CP:  8.06D-01  1.70D-01  5.58D-01  8.19D-02
 E= -33023.5422307498     Delta-E=       -9.835340249345 Rises=F Damp=F
 DIIS: error= 1.98D-02 at cycle   5 NSaved=   5.
 NSaved= 5 IEnMin= 5 EnMin= -33023.5422307498     IErMin= 5 ErrMin= 1.98D-02
 ErrMax= 1.98D-02  0.00D+00 EMaxC= 1.00D-01 BMatC= 8.34D-01 BMatP= 1.12D+01
 IDIUse=3 WtCom= 8.02D-01 WtEn= 1.98D-01
 Coeff-Com: -0.123D-01 0.379D-01 0.216D+00 0.820D-01 0.677D+00
 Coeff-En:   0.000D+00 0.000D+00 0.870D-01 0.000D+00 0.913D+00
 Coeff:     -0.983D-02 0.304D-01 0.190D+00 0.658D-01 0.724D+00
 Gap=     0.148 Goal=   None    Shift=    0.000
 RMSDP=3.18D-03 MaxDP=3.04D-01 DE=-9.84D+00 OVMax= 2.38D-01

 Cycle   6  Pass 1  IDiag  1:
 RMSU=  1.84D-03    CP:  7.77D-01  4.82D-02  7.44D-01  9.82D-02 -5.80D-02
 E= -33023.0957230826     Delta-E=        0.446507667213 Rises=F Damp=F
 DIIS: error= 1.24D-02 at cycle   6 NSaved=   6.
 NSaved= 6 IEnMin= 5 EnMin= -33023.5422307498     IErMin= 6 ErrMin= 1.24D-02
 ErrMax= 1.24D-02  0.00D+00 EMaxC= 1.00D-01 BMatC= 8.00D-01 BMatP= 8.34D-01
 IDIUse=3 WtCom= 8.76D-01 WtEn= 1.24D-01
 Coeff-Com: -0.595D-01 0.882D-01 0.762D-01 0.788D-02 0.559D+00 0.328D+00
 Coeff-En:   0.000D+00 0.000D+00 0.000D+00 0.000D+00 0.639D+00 0.361D+00
 Coeff:     -0.521D-01 0.772D-01 0.667D-01 0.690D-02 0.569D+00 0.332D+00
 Gap=     0.116 Goal=   None    Shift=    0.000
 RMSDP=1.85D-03 MaxDP=1.57D-01 DE= 4.47D-01 OVMax= 1.97D-01

 Cycle   7  Pass 1  IDiag  1:
 RMSU=  7.65D-04    CP:  7.61D-01 -2.92D-02  7.33D-01  8.32D-02  4.50D-01
                    CP:  3.48D-01
 E= -33023.8911351430     Delta-E=       -0.795412060361 Rises=F Damp=F
 DIIS: error= 1.64D-03 at cycle   7 NSaved=   7.
 NSaved= 7 IEnMin= 7 EnMin= -33023.8911351430     IErMin= 7 ErrMin= 1.64D-03
 ErrMax= 1.64D-03  0.00D+00 EMaxC= 1.00D-01 BMatC= 4.08D-02 BMatP= 8.00D-01
 IDIUse=3 WtCom= 9.84D-01 WtEn= 1.64D-02
 Coeff-Com: -0.504D-01 0.706D-01 0.143D-01-0.929D-02 0.301D+00 0.212D+00
 Coeff-Com:  0.462D+00
 Coeff-En:   0.000D+00 0.000D+00 0.000D+00 0.000D+00 0.000D+00 0.000D+00
 Coeff-En:   0.100D+01
 Coeff:     -0.496D-01 0.694D-01 0.141D-01-0.914D-02 0.297D+00 0.208D+00
 Coeff:      0.471D+00
 Gap=     0.098 Goal=   None    Shift=    0.000
 RMSDP=6.14D-04 MaxDP=7.60D-02 DE=-7.95D-01 OVMax= 5.10D-02

 Cycle   8  Pass 1  IDiag  1:
 RMSU=  3.38D-04    CP:  7.62D-01  3.16D-02  7.03D-01  8.66D-02  5.16D-01
                    CP:  4.37D-01  5.40D-01
 E= -33023.9231327657     Delta-E=       -0.031997622704 Rises=F Damp=F
 DIIS: error= 9.68D-04 at cycle   8 NSaved=   8.
 NSaved= 8 IEnMin= 8 EnMin= -33023.9231327657     IErMin= 8 ErrMin= 9.68D-04
 ErrMax= 9.68D-04  0.00D+00 EMaxC= 1.00D-01 BMatC= 7.64D-03 BMatP= 4.08D-02
 IDIUse=3 WtCom= 9.90D-01 WtEn= 9.68D-03
 Coeff-Com: -0.227D-01 0.311D-01-0.143D-02-0.407D-02 0.109D+00 0.688D-01
 Coeff-Com:  0.301D+00 0.519D+00
 Coeff-En:   0.000D+00 0.000D+00 0.000D+00 0.000D+00 0.000D+00 0.000D+00
 Coeff-En:   0.214D+00 0.786D+00
 Coeff:     -0.225D-01 0.308D-01-0.142D-02-0.403D-02 0.108D+00 0.681D-01
 Coeff:      0.300D+00 0.521D+00
 Gap=     0.097 Goal=   None    Shift=    0.000
 RMSDP=2.25D-04 MaxDP=2.81D-02 DE=-3.20D-02 OVMax= 3.04D-02

 Error on total polarization charges =  0.02530
 SCF Done:  E(RPBE-PBE) =  -33023.9231328     A.U. after    8 cycles
            NFock=  8  Conv=0.23D-03     -V/T= 2.0134
 KE= 3.258680067356D+04 PE=-1.098088712009D+05 EE= 2.842586302972D+04
 Leave Link  502 at Sun Dec  1 14:45:18 2019, MaxMem=   939524096 cpu:     40265.7
 (Enter /scr/programas/g09/l801.exe)
 Range of M.O.s used for correlation:     1  1862
 NBasis=  1862 NAE=   271 NBE=   271 NFC=     0 NFV=     0
 NROrb=   1862 NOA=   271 NOB=   271 NVA=  1591 NVB=  1591

 **** Warning!!: The largest alpha MO coefficient is  0.77034210D+02


 **** Warning!!: The smallest alpha delta epsilon is  0.96098086D-01

 Leave Link  801 at Sun Dec  1 14:45:19 2019, MaxMem=   939524096 cpu:         0.3
 (Enter /scr/programas/g09/l1002.exe)
 Minotr:  Closed shell wavefunction.
 NEqPCM:  Using equilibrium solvation (IEInf=0, Eps=   8.9300, EpsInf=   2.0283)
          Direct CPHF calculation.
          Differentiating once with respect to magnetic field using GIAOs.
          Electric field/nuclear overlap derivatives assumed to be zero.
          Requested convergence is 1.0D-08 RMS, and 1.0D-07 maximum.
          Secondary convergence is 1.0D-12 RMS, and 1.0D-12 maximum.
          NewPWx=T KeepS1=F KeepF1=F KeepIn=T MapXYZ=F SortEE=F KeepMc=T.
          MDV=     939521542 using IRadAn=       2.
 Defaulting to unpruned grid for atomic number  78.
 Defaulting to unpruned grid for atomic number  50.
 Generate precomputed XC quadrature information.
          Solving linear equations simultaneously, MaxMat=      72.
 FoFJK:  IHMeth= 1 ICntrl=    6127 DoSepK=F KAlg= 0 I1Cent=   0 FoldK=F
 IRaf=         1 NMat=   1 IRICut=       1 DoRegI=T DoRafI=F ISym2E= 0.
 Defaulting to unpruned grid for atomic number  78.
 Defaulting to unpruned grid for atomic number  78.
 Defaulting to unpruned grid for atomic number  78.
 Defaulting to unpruned grid for atomic number  78.
          There are     3 degrees of freedom in the 1st order CPHF.  IDoFFX=0 NUNeed=     3.
      3 vectors produced by pass  0 Test12= 1.44D-11 3.33D-08 XBig12= 1.08D+04 6.45D+00.
 AX will form     3 AO Fock derivatives at one time.
 InvSVY:  IOpt=1 It=  1 EMax= 0.00D+00
 Solved reduced A of dimension     3 with     3 vectors.
 Calculating GIAO nuclear magnetic shielding tensors.
 SCF GIAO Magnetic shielding tensor (ppm):
      1  Pt   Isotropic =  3231.8360   Anisotropy =  1496.3798
   XX=  4225.5130   YX=   -37.9268   ZX=    43.6714
   XY=   -54.1592   YY=  3447.0476   ZY=   180.1179
   XZ=    63.1097   YZ=  -113.8135   ZZ=  2022.9475
   Eigenvalues:  2020.8307  3445.2548  4229.4226
      2  P    Isotropic =   279.6979   Anisotropy =    62.9430
   XX=   311.1365   YX=    -0.3400   ZX=    13.3724
   XY=    -9.6167   YY=   299.9459   ZY=    -1.3545
   XZ=    49.3911   YZ=    28.7926   ZZ=   228.0114
   Eigenvalues:   214.9890   302.4449   321.6599
      3  C    Isotropic =   170.5091   Anisotropy =   159.4673
   XX=   251.7309   YX=    76.0304   ZX=    85.5970
   XY=   -56.2869   YY=   242.5414   ZY=    -0.6018
   XZ=    49.7430   YZ=    44.1397   ZZ=    17.2550
   Eigenvalues:    -2.2718   236.9785   276.8207
      4  C    Isotropic =   143.6223   Anisotropy =   339.6457
   XX=   188.5778   YX=   120.4420   ZX=    83.9376
   XY=   210.6280   YY=   213.3809   ZY=   -27.0361
   XZ=    19.2620   YZ=    19.0000   ZZ=    28.9082
   Eigenvalues:   -10.2226    71.0367   370.0527
      5  C    Isotropic =   142.9809   Anisotropy =   338.3165
   XX=   205.9124   YX=   131.6786   ZX=    33.2883
   XY=   141.9596   YY=   210.7356   ZY=   156.9589
   XZ=    42.1999   YZ=    23.0634   ZZ=    12.2946
   Eigenvalues:   -23.7208    84.1382   368.5252
      6  C    Isotropic =     6.2771   Anisotropy =    39.7087
   XX=    24.3677   YX=    40.8732   ZX=    48.4013
   XY=   -32.9061   YY=   -15.8473   ZY=   -30.8434
   XZ=   -33.9591   YZ=   -31.0629   ZZ=    10.3110
   Eigenvalues:   -37.2416    23.3234    32.7496
      7  H    Isotropic =    23.8188   Anisotropy =    14.2733
   XX=    25.2659   YX=    -7.1385   ZX=     1.1872
   XY=   -11.5567   YY=    21.3251   ZY=    -9.8046
   XZ=    -0.3093   YZ=     4.5090   ZZ=    24.8654
   Eigenvalues:    13.4596    24.6624    33.3343
      8  C    Isotropic =    36.4944   Anisotropy =    84.4573
   XX=    61.6803   YX=    41.7979   ZX=   -25.9399
   XY=   -17.1449   YY=     1.2584   ZY=    52.6663
   XZ=    62.4054   YZ=    43.9321   ZZ=    46.5445
   Eigenvalues:   -29.4464    46.1303    92.7992
      9  H    Isotropic =    22.9372   Anisotropy =    16.4547
   XX=    22.1580   YX=     0.4987   ZX=     2.0526
   XY=   -12.2894   YY=    23.0324   ZY=    -2.5815
   XZ=     2.3561   YZ=   -12.8873   ZZ=    23.6211
   Eigenvalues:    14.3339    20.5706    33.9070
     10  C    Isotropic =   -44.7316   Anisotropy =    94.3108
   XX=   -61.4014   YX=    12.4282   ZX=   -18.7793
   XY=  -139.1162   YY=   -86.4345   ZY=   -35.1227
   XZ=    -8.1191   YZ=    -8.2577   ZZ=    13.6412
   Eigenvalues:  -142.5851    -9.7520    18.1423
     11  H    Isotropic =    20.8782   Anisotropy =    12.2401
   XX=    21.5491   YX=    -7.2694   ZX=    -0.6555
   XY=    -9.6985   YY=    19.3739   ZY=    -3.8014
   XZ=    -1.7951   YZ=    -0.2098   ZZ=    21.7115
   Eigenvalues:    11.3884    22.2078    29.0383
     12  H    Isotropic =    22.0978   Anisotropy =    10.7277
   XX=    23.0989   YX=    -4.0902   ZX=     0.2038
   XY=    -7.8286   YY=    21.5286   ZY=    -1.8978
   XZ=     0.8438   YZ=    -4.7497   ZZ=    21.6658
   Eigenvalues:    15.4836    21.5601    29.2496
     13  H    Isotropic =    20.8532   Anisotropy =     9.2321
   XX=    19.4007   YX=    -6.2025   ZX=    -1.0008
   XY=    -8.2708   YY=    19.9039   ZY=    -1.8799
   XZ=    -1.3027   YZ=    -2.0859   ZZ=    23.2551
   Eigenvalues:    11.9787    23.5730    27.0080
     14  C    Isotropic =   120.2872   Anisotropy =   148.7352
   XX=   172.1033   YX=   -95.9212   ZX=   -27.6543
   XY=   -42.0119   YY=    62.3772   ZY=    -7.0133
   XZ=   -68.1798   YZ=   -32.1595   ZZ=   126.3810
   Eigenvalues:    15.0329   126.3847   219.4439
     15  C    Isotropic =   140.1649   Anisotropy =   309.8004
   XX=   219.4462   YX=  -146.7556   ZX=    -5.3402
   XY=  -184.6393   YY=   123.6584   ZY=   -54.6453
   XZ=    42.6082   YZ=    15.0507   ZZ=    77.3900
   Eigenvalues:    -1.2076    75.0037   346.6985
     16  C    Isotropic =    85.7500   Anisotropy =   241.9492
   XX=   152.7779   YX=  -131.1485   ZX=   -19.6401
   XY=  -118.8713   YY=    81.2777   ZY=     0.7955
   XZ=   -25.5759   YZ=   -59.8659   ZZ=    23.1943
   Eigenvalues:   -36.2611    46.4616   247.0494
     17  C    Isotropic =   -19.5982   Anisotropy =    84.4078
   XX=    -3.9157   YX=   -14.8684   ZX=    -1.3903
   XY=    23.4216   YY=   -70.4015   ZY=     6.4666
   XZ=    29.6188   YZ=    73.7916   ZZ=    15.5227
   Eigenvalues:   -86.2458    -9.2224    36.6737
     18  H    Isotropic =    23.8889   Anisotropy =    10.3880
   XX=    21.8740   YX=     5.1969   ZX=    -3.6267
   XY=     6.6401   YY=    25.4462   ZY=    -6.2829
   XZ=    -0.7368   YZ=     3.3045   ZZ=    24.3465
   Eigenvalues:    17.3630    23.4896    30.8142
     19  C    Isotropic =    22.9943   Anisotropy =   114.0418
   XX=    64.9043   YX=   -39.9816   ZX=   -16.8190
   XY=   -37.2145   YY=    51.0870   ZY=    -6.0039
   XZ=   -47.9703   YZ=   -22.9297   ZZ=   -47.0085
   Eigenvalues:   -61.2404    31.2011    99.0221
     20  H    Isotropic =    21.5344   Anisotropy =    11.1493
   XX=    17.9177   YX=     2.1633   ZX=    -2.0046
   XY=     5.0141   YY=    18.8754   ZY=     0.7219
   XZ=    -5.0999   YZ=     2.3227   ZZ=    27.8100
   Eigenvalues:    13.7997    21.8362    28.9672
     21  C    Isotropic =   -25.4806   Anisotropy =    58.2682
   XX=     2.1347   YX=    -8.7224   ZX=    28.8009
   XY=     1.7198   YY=    -4.3983   ZY=    25.9612
   XZ=     7.7097   YZ=    47.5427   ZZ=   -74.1781
   Eigenvalues:   -93.4188     3.6122    13.3649
     22  H    Isotropic =    17.7815   Anisotropy =    14.6327
   XX=    11.8512   YX=     9.2854   ZX=    -2.3970
   XY=    12.4410   YY=    15.6734   ZY=    -2.3744
   XZ=    -4.5633   YZ=     3.1455   ZZ=    25.8200
   Eigenvalues:     2.3677    23.4402    27.5367
     23  H    Isotropic =    19.1178   Anisotropy =    13.3721
   XX=    13.7878   YX=     8.1170   ZX=    -2.5375
   XY=     6.8382   YY=    17.6036   ZY=    -0.6247
   XZ=    -6.0942   YZ=     0.7013   ZZ=    25.9622
   Eigenvalues:     7.3316    21.9894    28.0325
     24  H    Isotropic =    15.4074   Anisotropy =    16.0792
   XX=     7.3231   YX=    12.8040   ZX=    -0.5029
   XY=    16.3232   YY=    14.2319   ZY=    -0.9160
   XZ=    -4.2175   YZ=     2.8797   ZZ=    24.6670
   Eigenvalues:    -4.3985    24.4937    26.1268
     25  C    Isotropic =   115.3054   Anisotropy =   111.3959
   XX=    51.2973   YX=    12.2249   ZX=     6.8921
   XY=    -9.4336   YY=   185.3903   ZY=   -30.0161
   XZ=    75.0770   YZ=    -4.5166   ZZ=   109.2284
   Eigenvalues:    29.5278   126.8190   189.5693
     26  C    Isotropic =   184.5394   Anisotropy =   421.0056
   XX=    12.4806   YX=    -5.3884   ZX=    36.2015
   XY=   -34.9011   YY=   343.3031   ZY=  -167.8544
   XZ=   -22.6566   YZ=  -191.2256   ZZ=   197.8345
   Eigenvalues:    11.0705    77.3378   465.2098
     27  C    Isotropic =    96.7136   Anisotropy =   350.3543
   XX=   -32.1814   YX=   -24.9982   ZX=    25.8279
   XY=    53.3707   YY=   222.9753   ZY=  -156.7158
   XZ=    38.8692   YZ=  -157.8731   ZZ=    99.3470
   Eigenvalues:   -56.8761    16.7339   330.2832
     28  C    Isotropic =   -23.7696   Anisotropy =   104.0650
   XX=   -46.4095   YX=    14.7201   ZX=   -16.7709
   XY=    -2.5943   YY=   -22.9840   ZY=    35.0516
   XZ=   -93.5608   YZ=    34.9977   ZZ=    -1.9152
   Eigenvalues:   -92.9877   -23.9281    45.6071
     29  H    Isotropic =    22.1921   Anisotropy =    16.3604
   XX=    30.8901   YX=     7.7112   ZX=     7.5818
   XY=    -0.4796   YY=    22.5055   ZY=    -2.0802
   XZ=     0.6355   YZ=     3.7815   ZZ=    13.1809
   Eigenvalues:    12.2738    21.2036    33.0991
     30  C    Isotropic =    -8.1517   Anisotropy =    65.2690
   XX=     3.1510   YX=    18.5286   ZX=    18.1697
   XY=    24.7750   YY=    13.6738   ZY=   -38.4108
   XZ=    43.7283   YZ=   -39.7789   ZZ=   -41.2797
   Eigenvalues:   -78.7528    18.9368    35.3610
     31  H    Isotropic =    20.9389   Anisotropy =    13.3883
   XX=    20.1749   YX=     0.1376   ZX=     3.8926
   XY=    -1.8444   YY=    16.2824   ZY=     3.0022
   XZ=     4.1452   YZ=     7.6715   ZZ=    26.3593
   Eigenvalues:    13.0945    19.8578    29.8645
     32  C    Isotropic =   -27.4282   Anisotropy =    68.7280
   XX=    -3.1867   YX=   -18.2393   ZX=   -23.9021
   XY=   -19.8423   YY=    -9.9013   ZY=   -46.8426
   XZ=   -45.3988   YZ=   -52.6261   ZZ=   -69.1966
   Eigenvalues:  -111.8349    11.1598    18.3904
     33  H    Isotropic =    16.8696   Anisotropy =    15.7238
   XX=    24.4294   YX=     4.2140   ZX=     2.2265
   XY=     0.7431   YY=     9.2441   ZY=     9.4836
   XZ=    -0.3637   YZ=    14.3911   ZZ=    16.9354
   Eigenvalues:     0.4592    22.7975    27.3522
     34  H    Isotropic =    17.5971   Anisotropy =    14.8482
   XX=    23.8574   YX=     1.1367   ZX=     2.1126
   XY=     2.0455   YY=    11.5926   ZY=    10.1578
   XZ=     1.3061   YZ=    12.1979   ZZ=    17.3414
   Eigenvalues:     2.9233    22.3721    27.4959
     35  H    Isotropic =    13.1135   Anisotropy =    18.6869
   XX=    25.2255   YX=     2.5424   ZX=    -0.6981
   XY=     0.7750   YY=     1.9497   ZY=    16.1716
   XZ=    -0.7386   YZ=    18.0435   ZZ=    12.1654
   Eigenvalues:   -10.8820    24.6511    25.5715
     36  Sn   Isotropic =  1864.8054   Anisotropy =   618.1656
   XX=  1885.2049   YX=   118.1232   ZX=    57.5199
   XY=   178.2245   YY=  2220.3920   ZY=    -3.3735
   XZ=    17.3572   YZ=    13.5982   ZZ=  1488.8192
   Eigenvalues:  1485.2025  1832.2979  2276.9157
     37  P    Isotropic =   260.1224   Anisotropy =    75.7132
   XX=   310.1575   YX=    18.5852   ZX=    -7.1801
   XY=   -12.4677   YY=   269.0927   ZY=    -7.4200
   XZ=    -0.3793   YZ=   -19.0954   ZZ=   201.1171
   Eigenvalues:   198.5339   271.2355   310.5979
     38  C    Isotropic =    35.0497   Anisotropy =   200.0707
   XX=   143.7896   YX=    47.5070   ZX=   -20.9860
   XY=    90.6933   YY=   -44.1984   ZY=    -3.3617
   XZ=   -13.9125   YZ=    -5.3020   ZZ=     5.5581
   Eigenvalues:   -66.8897     3.6087   168.4302
     39  C    Isotropic =    40.4966   Anisotropy =   174.3505
   XX=   133.6527   YX=    60.4986   ZX=   -25.3500
   XY=    44.2326   YY=    32.4284   ZY=    31.9592
   XZ=   -28.5642   YZ=    29.3740   ZZ=   -44.5913
   Eigenvalues:   -65.2452    30.0048   156.7303
     40  C    Isotropic =    42.0267   Anisotropy =   182.1957
   XX=   142.3013   YX=    54.2337   ZX=   -16.1889
   XY=    39.3241   YY=    25.1027   ZY=   -51.6717
   XZ=   -13.3106   YZ=   -48.5101   ZZ=   -41.3239
   Eigenvalues:   -68.6471    31.2367   163.4905
     41  C    Isotropic =    54.2047   Anisotropy =   189.5938
   XX=   158.6226   YX=    47.1946   ZX=   -15.5946
   XY=    55.6705   YY=    32.3416   ZY=   -52.3415
   XZ=    -7.5994   YZ=   -43.8251   ZZ=   -28.3502
   Eigenvalues:   -55.9833    37.9968   180.6006
     42  H    Isotropic =    25.2062   Anisotropy =    16.0478
   XX=    21.2063   YX=    -3.1865   ZX=    -3.9131
   XY=    -3.8066   YY=    33.3340   ZY=     4.0005
   XZ=    -3.1050   YZ=     4.1940   ZZ=    21.0783
   Eigenvalues:    17.6134    22.1005    35.9047
     43  C    Isotropic =    63.0595   Anisotropy =   205.6784
   XX=   169.1348   YX=    60.3894   ZX=   -32.9186
   XY=    70.8350   YY=    45.3006   ZY=    29.0069
   XZ=   -42.9237   YZ=    23.5448   ZZ=   -25.2569
   Eigenvalues:   -50.3972    39.3972   200.1784
     44  H    Isotropic =    25.5825   Anisotropy =    16.6899
   XX=    22.8043   YX=    -4.9512   ZX=     3.0909
   XY=    -5.0065   YY=    33.0834   ZY=    -3.0437
   XZ=     2.7971   YZ=    -5.4425   ZZ=    20.8599
   Eigenvalues:    18.6957    21.3427    36.7091
     45  C    Isotropic =    36.0184   Anisotropy =   155.4212
   XX=   121.4476   YX=    46.7347   ZX=   -12.3018
   XY=    65.0378   YY=   -47.0129   ZY=    -3.3358
   XZ=   -10.4975   YZ=    -3.3478   ZZ=    33.6206
   Eigenvalues:   -63.8669    32.2896   139.6326
     46  H    Isotropic =    24.2328   Anisotropy =     8.2904
   XX=    21.8199   YX=    -3.5562   ZX=    -0.2602
   XY=    -4.3691   YY=    27.7322   ZY=    -0.5229
   XZ=     0.0959   YZ=    -0.7059   ZZ=    23.1461
   Eigenvalues:    19.7956    23.1429    29.7597
     47  H    Isotropic =    25.0854   Anisotropy =     7.1851
   XX=    23.7357   YX=    -3.0507   ZX=     0.4461
   XY=    -3.2011   YY=    28.2672   ZY=     0.8541
   XZ=    -0.4403   YZ=    -0.1837   ZZ=    23.2534
   Eigenvalues:    22.1194    23.2614    29.8755
     48  H    Isotropic =    25.1707   Anisotropy =     1.6993
   XX=    24.1964   YX=    -1.7486   ZX=     0.1942
   XY=    -1.2174   YY=    25.2461   ZY=     0.2175
   XZ=    -0.2690   YZ=    -0.3832   ZZ=    26.0696
   Eigenvalues:    23.1460    26.0626    26.3036
     49  C    Isotropic =    53.5703   Anisotropy =   159.6630
   XX=    15.2638   YX=   -12.9759   ZX=    10.6201
   XY=   -20.5216   YY=   138.8436   ZY=    50.4209
   XZ=    -7.8446   YZ=    58.5263   ZZ=     6.6034
   Eigenvalues:   -14.6440    15.3425   160.0123
     50  C    Isotropic =    61.8632   Anisotropy =   218.8223
   XX=   -22.3032   YX=    23.7995   ZX=   -34.1535
   XY=    18.3448   YY=   178.0580   ZY=    73.9177
   XZ=   -29.3338   YZ=    70.7010   ZZ=    29.8348
   Eigenvalues:   -50.1260    27.9709   207.7447
     51  C    Isotropic =    42.6244   Anisotropy =   205.1677
   XX=   -70.4103   YX=    -0.4465   ZX=    -2.3768
   XY=    10.7506   YY=   160.5962   ZY=    56.4953
   XZ=    -9.1592   YZ=    46.6533   ZZ=    37.6872
   Eigenvalues:   -71.0168    19.4870   179.4029
     52  C    Isotropic =    18.2522   Anisotropy =   146.6930
   XX=   -79.4400   YX=    -8.9241   ZX=    18.5779
   XY=    38.9773   YY=   104.3518   ZY=    13.2339
   XZ=    48.5516   YZ=    39.8432   ZZ=    29.8449
   Eigenvalues:   -89.2064    27.9156   116.0475
     53  H    Isotropic =    22.5638   Anisotropy =    11.6800
   XX=    26.7339   YX=     2.7402   ZX=    -4.9704
   XY=    -1.7299   YY=    17.8579   ZY=    -0.4291
   XZ=    -5.1657   YZ=    -0.8731   ZZ=    23.0998
   Eigenvalues:    17.7751    19.5659    30.3505
     54  C    Isotropic =     7.0779   Anisotropy =   125.8198
   XX=   -13.4936   YX=    -3.3472   ZX=   -58.0213
   XY=    15.0000   YY=    73.7570   ZY=    43.1894
   XZ=   -56.3146   YZ=    44.8122   ZZ=   -39.0297
   Eigenvalues:   -93.6746    23.9505    90.9577
     55  H    Isotropic =    22.9825   Anisotropy =    13.4179
   XX=    17.3168   YX=    -0.4478   ZX=    -5.1232
   XY=    -1.9894   YY=    21.2486   ZY=    -0.1224
   XZ=    -4.3784   YZ=    -0.8618   ZZ=    30.3822
   Eigenvalues:    15.4743    21.5455    31.9277
     56  C    Isotropic =    38.0938   Anisotropy =   285.2068
   XX=     0.9247   YX=    -7.8517   ZX=    45.6211
   XY=   -27.2938   YY=   190.2191   ZY=   118.5803
   XZ=    40.2325   YZ=    96.7269   ZZ=   -76.8623
   Eigenvalues:  -131.1086    17.1584   228.2317
     57  H    Isotropic =    17.5085   Anisotropy =    13.3034
   XX=    23.6588   YX=    -2.0460   ZX=    -1.8767
   XY=     0.3020   YY=     4.5907   ZY=    -5.9883
   XZ=    -0.3985   YZ=    -6.5671   ZZ=    24.2758
   Eigenvalues:     2.6953    23.4526    26.3774
     58  H    Isotropic =    21.2513   Anisotropy =    11.5048
   XX=    23.9622   YX=     1.3244   ZX=    -3.6094
   XY=     0.8587   YY=    14.1395   ZY=    -3.1115
   XZ=    -3.7719   YZ=    -0.7754   ZZ=    25.6523
   Eigenvalues:    13.7947    21.0381    28.9212
     59  H    Isotropic =    16.6038   Anisotropy =    14.8799
   XX=    26.4761   YX=    -1.7455   ZX=    -1.0378
   XY=     0.6652   YY=     1.5157   ZY=    -8.0430
   XZ=     0.0996   YZ=    -5.1104   ZZ=    21.8195
   Eigenvalues:    -0.4442    23.7318    26.5237
     60  C    Isotropic =    49.6955   Anisotropy =   162.6839
   XX=    31.4755   YX=   -48.3099   ZX=    -0.7448
   XY=   -42.9787   YY=   125.9836   ZY=   -44.4247
   XZ=    10.4218   YZ=   -54.3634   ZZ=    -8.3725
   Eigenvalues:   -26.5878    17.5229   158.1515
     61  C    Isotropic =    70.1666   Anisotropy =   241.4315
   XX=    -7.2658   YX=   -35.8375   ZX=    56.1917
   XY=   -43.3672   YY=   208.3611   ZY=   -56.9710
   XZ=    39.3057   YZ=   -44.3447   ZZ=     9.4046
   Eigenvalues:   -47.4257    26.8046   231.1210
     62  C    Isotropic =    41.8804   Anisotropy =   192.3353
   XX=   -56.3725   YX=   -49.3405   ZX=    19.5926
   XY=   -41.6768   YY=   144.1944   ZY=   -53.3832
   XZ=    25.1410   YZ=   -31.0240   ZZ=    37.8191
   Eigenvalues:   -67.9549    23.4920   170.1039
     63  C    Isotropic =    11.0982   Anisotropy =   118.9706
   XX=   -72.8641   YX=   -52.6508   ZX=    -3.8603
   XY=    -8.1220   YY=    75.1779   ZY=   -10.2026
   XZ=   -17.5331   YZ=   -41.2164   ZZ=    30.9808
   Eigenvalues:   -81.0593    23.9420    90.4120
     64  H    Isotropic =    22.7146   Anisotropy =    10.8110
   XX=    26.8998   YX=     2.4098   ZX=     3.5901
   XY=     2.2780   YY=    18.3242   ZY=     2.7515
   XZ=     4.0804   YZ=     0.4382   ZZ=    22.9198
   Eigenvalues:    17.6262    20.5956    29.9219
     65  C    Isotropic =    12.3508   Anisotropy =   134.5924
   XX=     5.8646   YX=   -35.1032   ZX=    62.4260
   XY=    -8.1917   YY=    83.3489   ZY=   -25.0114
   XZ=    61.3981   YZ=   -26.7678   ZZ=   -52.1609
   Eigenvalues:   -92.1446    27.1180   102.0791
     66  H    Isotropic =    23.2581   Anisotropy =    13.4642
   XX=    20.0395   YX=     0.1829   ZX=     4.1412
   XY=    -4.3129   YY=    19.9035   ZY=     2.3450
   XZ=     6.6672   YZ=     0.1009   ZZ=    29.8314
   Eigenvalues:    16.1341    21.4060    32.2342
     67  C    Isotropic =    38.7340   Anisotropy =   287.8105
   XX=     9.6680   YX=   -50.0290   ZX=   -32.9615
   XY=   -76.2103   YY=   191.3112   ZY=  -103.7535
   XZ=   -35.6519   YZ=   -78.2441   ZZ=   -84.7771
   Eigenvalues:  -131.4995    17.0939   230.6077
     68  H    Isotropic =    18.2582   Anisotropy =    11.9809
   XX=    23.6562   YX=     1.0921   ZX=     0.9841
   XY=     4.6747   YY=     6.3123   ZY=     4.9991
   XZ=     0.2280   YZ=     2.9675   ZZ=    24.8060
   Eigenvalues:     5.0961    23.4329    26.2454
     69  H    Isotropic =    21.0512   Anisotropy =    11.7984
   XX=    23.7348   YX=     4.9210   ZX=     2.7057
   XY=     2.3552   YY=    13.6480   ZY=     2.6591
   XZ=     4.2673   YZ=    -1.1750   ZZ=    25.7709
   Eigenvalues:    12.4619    21.7749    28.9169
     70  H    Isotropic =    16.9234   Anisotropy =    14.4181
   XX=    25.4808   YX=     3.3544   ZX=    -0.5334
   XY=     6.6230   YY=     2.0913   ZY=     6.3111
   XZ=    -0.4080   YZ=     1.3958   ZZ=    23.1981
   Eigenvalues:     0.4144    23.8204    26.5354
     71  Br   Isotropic =  2211.5274   Anisotropy =   377.1057
   XX=  1940.9788   YX=   119.8366   ZX=  -122.5469
   XY=   135.2461   YY=  2276.6161   ZY=   -60.9949
   XZ=  -122.1557   YZ=    17.2821   ZZ=  2416.9873
   Eigenvalues:  1875.7426  2295.9085  2462.9312
     72  Br   Isotropic =  2454.2778   Anisotropy =   471.7429
   XX=  2273.3679   YX=  -196.0793   ZX=   -53.1671
   XY=  -219.7368   YY=  2347.4557   ZY=  -132.6712
   XZ=  -146.0777   YZ=   -45.7773   ZZ=  2742.0098
   Eigenvalues:  2072.5409  2521.5194  2768.7730
     73  Br   Isotropic =  2296.6354   Anisotropy =   557.5830
   XX=  2102.6262   YX=  -127.3589   ZX=  -233.2833
   XY=  -100.7150   YY=  2243.6637   ZY=   189.6679
   XZ=  -120.6366   YZ=    72.8993   ZZ=  2543.6164
   Eigenvalues:  2017.7997  2203.7491  2668.3574
     74  C    Isotropic =   145.4882   Anisotropy =    25.1174
   XX=   152.8682   YX=     3.7518   ZX=     6.0454
   XY=    12.1227   YY=   155.5059   ZY=    -3.4811
   XZ=     2.5239   YZ=    -3.8945   ZZ=   128.0907
   Eigenvalues:   126.4664   147.7652   162.2331
     75  H    Isotropic =    32.8912   Anisotropy =     7.3933
   XX=    31.7488   YX=     0.1416   ZX=     6.2730
   XY=     0.2374   YY=    37.3546   ZY=    -2.6557
   XZ=     4.8179   YZ=    -0.1099   ZZ=    29.5701
   Eigenvalues:    24.8943    35.9592    37.8201
     76  H    Isotropic =    32.3312   Anisotropy =     9.1440
   XX=    33.4845   YX=    -0.8491   ZX=    -2.9975
   XY=    -0.6395   YY=    37.8950   ZY=     2.9350
   XZ=    -2.5908   YZ=     0.5684   ZZ=    25.6141
   Eigenvalues:    24.5650    34.0014    38.4272
     77  C    Isotropic =   153.9195   Anisotropy =    30.6526
   XX=   147.0997   YX=    -3.4777   ZX=    -8.3099
   XY=     4.4410   YY=   172.6999   ZY=     2.0428
   XZ=    -8.9199   YZ=    12.2397   ZZ=   141.9589
   Eigenvalues:   134.5703   152.8335   174.3546
     78  H    Isotropic =    31.8527   Anisotropy =     9.5798
   XX=    34.2137   YX=     1.1750   ZX=    -1.6848
   XY=     4.7010   YY=    35.5177   ZY=    -0.4376
   XZ=    -2.2296   YZ=    -1.8504   ZZ=    25.8268
   Eigenvalues:    25.3672    31.9517    38.2393
     79  H    Isotropic =    30.2270   Anisotropy =     9.4462
   XX=    28.6524   YX=     6.1409   ZX=     1.2045
   XY=     3.8849   YY=    32.9603   ZY=    -1.1975
   XZ=     3.9740   YZ=     1.0347   ZZ=    29.0684
   Eigenvalues:    24.2957    29.8609    36.5245
     80  C    Isotropic =   158.2546   Anisotropy =    19.9792
   XX=   145.8384   YX=    -5.4319   ZX=    -0.3116
   XY=     1.1778   YY=   171.3614   ZY=    -0.2970
   XZ=    -1.4848   YZ=     1.5855   ZZ=   157.5640
   Eigenvalues:   145.6030   157.5867   171.5741
     81  H    Isotropic =    29.4015   Anisotropy =    15.6398
   XX=    31.0510   YX=     6.7172   ZX=    -3.2048
   XY=     5.8781   YY=    35.2997   ZY=     1.8740
   XZ=    -3.3952   YZ=     2.0573   ZZ=    21.8537
   Eigenvalues:    19.7028    28.6736    39.8281
     82  H    Isotropic =    31.2756   Anisotropy =     6.6397
   XX=    25.9467   YX=     0.3771   ZX=     2.1230
   XY=     2.8637   YY=    35.4295   ZY=     1.6665
   XZ=     1.3953   YZ=    -2.0509   ZZ=    32.4506
   Eigenvalues:    25.2442    32.8805    35.7020
     83  C    Isotropic =   167.5541   Anisotropy =    35.3153
   XX=   156.3225   YX=     5.3373   ZX=    -2.7547
   XY=     3.1295   YY=   190.2727   ZY=     0.7223
   XZ=    -3.5560   YZ=    -6.5132   ZZ=   156.0670
   Eigenvalues:   153.0154   158.5492   191.0976
     84  H    Isotropic =    30.9829   Anisotropy =     8.9988
   XX=    27.3889   YX=    -0.1245   ZX=     2.3493
   XY=     0.4476   YY=    35.1697   ZY=    -3.8154
   XZ=     3.3125   YZ=    -2.7352   ZZ=    30.3901
   Eigenvalues:    25.3049    30.6617    36.9821
     85  H    Isotropic =    30.8523   Anisotropy =    12.0430
   XX=    26.9998   YX=    -0.3362   ZX=    -1.3676
   XY=    -0.6828   YY=    37.2131   ZY=     5.0046
   XZ=    -1.4301   YZ=     3.1393   ZZ=    28.3439
   Eigenvalues:    25.7203    27.9556    38.8810
     86  H    Isotropic =    31.2650   Anisotropy =    11.2549
   XX=    33.3022   YX=     4.0840   ZX=    -0.4440
   XY=     6.1046   YY=    34.0103   ZY=    -0.0983
   XZ=    -0.4021   YZ=     0.1850   ZZ=    26.4824
   Eigenvalues:    26.4230    28.6037    38.7682
 End of Minotr F.D. properties file   721 does not exist.
 End of Minotr F.D. properties file   722 does not exist.
 End of Minotr F.D. properties file   788 does not exist.
 Leave Link 1002 at Sun Dec  1 22:43:14 2019, MaxMem=   939524096 cpu:    112396.3
 (Enter /scr/programas/g09/l601.exe)
 Copying SCF densities to generalized density rwf, IOpCl= 0 IROHF=0.

 **********************************************************************

            Population analysis using the SCF density.

 **********************************************************************

 Orbital symmetries:
       Occupied  (A) (A) (A) (A) (A) (A) (A) (A) (A) (A) (A) (A)
                 (A) (A) (A) (A) (A) (A) (A) (A) (A) (A) (A) (A)
                 (A) (A) (A) (A) (A) (A) (A) (A) (A) (A) (A) (A)
                 (A) (A) (A) (A) (A) (A) (A) (A) (A) (A) (A) (A)
                 (A) (A) (A) (A) (A) (A) (A) (A) (A) (A) (A) (A)
                 (A) (A) (A) (A) (A) (A) (A) (A) (A) (A) (A) (A)
                 (A) (A) (A) (A) (A) (A) (A) (A) (A) (A) (A) (A)
                 (A) (A) (A) (A) (A) (A) (A) (A) (A) (A) (A) (A)
                 (A) (A) (A) (A) (A) (A) (A) (A) (A) (A) (A) (A)
                 (A) (A) (A) (A) (A) (A) (A) (A) (A) (A) (A) (A)
                 (A) (A) (A) (A) (A) (A) (A) (A) (A) (A) (A) (A)
[...]
 Alpha virt. eigenvalues --    1.67510   1.67706   1.67978   1.68048   1.68205
 Alpha virt. eigenvalues --    1.68489   1.68953   1.69044   1.69288   1.69546
 Alpha virt. eigenvalues --    1.69951   1.70149   1.70361   1.70534   1.70679
 Alpha virt. eigenvalues --    1.70786   1.71011   1.71227   1.71425   1.71770
 Alpha virt. eigenvalues --    1.71884   1.72608   1.72735   1.72899   1.73317
 Alpha virt. eigenvalues --    1.73338   1.73690   1.73858   1.74079   1.74645
 Alpha virt. eigenvalues --    1.74832   1.75071   1.75185   1.75650   1.76028
 Alpha virt. eigenvalues --    1.76405   1.76718   1.77143   1.77296   1.77594
 Alpha virt. eigenvalues --    1.78271   1.78754   1.78945   1.79201   1.79593
 Alpha virt. eigenvalues --    1.80702   1.81506   1.81651   1.81972   1.82327
 Alpha virt. eigenvalues --    1.83298   1.83404   1.83834   1.84163   1.84713
 Alpha virt. eigenvalues --    1.84897   1.85393   1.85713   1.85995   1.86858
 Alpha virt. eigenvalues --    1.86884   1.87238   1.87620   1.87886   1.88665
 Alpha virt. eigenvalues --    1.88928   1.89396   1.89676   1.90010   1.90222
 Alpha virt. eigenvalues --    1.90391   1.90917   1.91092   1.91667   1.91973
 Alpha virt. eigenvalues --    1.92481   1.92915   1.93372   1.93505   1.93825
 Alpha virt. eigenvalues --    1.94287   1.94369   1.94530   1.95353   1.95720
 Alpha virt. eigenvalues --    1.96266   1.96540   1.97459   1.97776   1.98278
 Alpha virt. eigenvalues --    1.98564   1.98657   1.99767   2.00015   2.00179
 Alpha virt. eigenvalues --    2.00509   2.01139   2.01360   2.01563   2.01798
 Alpha virt. eigenvalues --    2.02042   2.02730   2.02874   2.03489   2.03633
 Alpha virt. eigenvalues --    2.03806   2.04116   2.04195   2.04501   2.04749
 Alpha virt. eigenvalues --    2.05116   2.05272   2.05678   2.05994   2.06553
 Alpha virt. eigenvalues --    2.06805   2.07010   2.07169   2.07332   2.07545
 Alpha virt. eigenvalues --    2.08346   2.08456   2.08720   2.08871   2.09088
 Alpha virt. eigenvalues --    2.09707   2.10120   2.10553   2.11234   2.11379
 Alpha virt. eigenvalues --    2.11938   2.12199   2.12532   2.12973   2.13201
 Alpha virt. eigenvalues --    2.13617   2.13973   2.14751   2.15136   2.15733
 Alpha virt. eigenvalues --    2.16036   2.16266   2.16592   2.17238   2.17453
 Alpha virt. eigenvalues --    2.17704   2.17882   2.18267   2.18559   2.18973
 Alpha virt. eigenvalues --    2.19338   2.19616   2.20194   2.20390   2.20640
 Alpha virt. eigenvalues --    2.20918   2.21093   2.21787   2.22248   2.22683
 Alpha virt. eigenvalues --    2.23686   2.24000   2.24566   2.24662   2.25066
 Alpha virt. eigenvalues --    2.26637   2.26996   2.27920   2.28128   2.28504
 Alpha virt. eigenvalues --    2.28900   2.29182   2.29924   2.30177   2.30495
 Alpha virt. eigenvalues --    2.30836   2.31133   2.31701   2.31917   2.32081
 Alpha virt. eigenvalues --    2.32370   2.32694   2.33125   2.33438   2.34122
 Alpha virt. eigenvalues --    2.34286   2.34756   2.35186   2.35443   2.35620
 Alpha virt. eigenvalues --    2.36092   2.36363   2.36954   2.37208   2.37341
 Alpha virt. eigenvalues --    2.37455   2.37958   2.38333   2.38453   2.38746
 Alpha virt. eigenvalues --    2.38984   2.39159   2.39639   2.40152   2.40656
 Alpha virt. eigenvalues --    2.41052   2.41455   2.41688   2.42123   2.42452
 Alpha virt. eigenvalues --    2.43151   2.43307   2.44183   2.45186   2.45532
 Alpha virt. eigenvalues --    2.45732   2.45931   2.46966   2.47301   2.47574
 Alpha virt. eigenvalues --    2.48043   2.48910   2.49089   2.49698   2.50101
 Alpha virt. eigenvalues --    2.50438   2.50649   2.50950   2.52113   2.52663
 Alpha virt. eigenvalues --    2.53193   2.53981   2.54379   2.54648   2.55380
 Alpha virt. eigenvalues --    2.55492   2.56340   2.57115   2.57558   2.57792
 Alpha virt. eigenvalues --    2.58100   2.58699   2.59615   2.59641   2.60019
 Alpha virt. eigenvalues --    2.60458   2.60894   2.61020   2.61103   2.61809
 Alpha virt. eigenvalues --    2.62114   2.62762   2.63515   2.64205   2.64509
 Alpha virt. eigenvalues --    2.64766   2.65362   2.66290   2.66678   2.67151
 Alpha virt. eigenvalues --    2.67996   2.68242   2.68474   2.68874   2.69676
 Alpha virt. eigenvalues --    2.69826   2.70146   2.71038   2.71297   2.71770
 Alpha virt. eigenvalues --    2.71859   2.72213   2.72454   2.73084   2.73357
 Alpha virt. eigenvalues --    2.73536   2.73718   2.74385   2.74554   2.74586
 Alpha virt. eigenvalues --    2.75269   2.75644   2.76247   2.76576   2.77112
 Alpha virt. eigenvalues --    2.77691   2.79248   2.79991   2.80339   2.80931
 Alpha virt. eigenvalues --    2.81634   2.82620   2.82807   2.83099   2.83557
 Alpha virt. eigenvalues --    2.84244   2.84366   2.85220   2.85940   2.86633
 Alpha virt. eigenvalues --    2.86942   2.87241   2.87654   2.89345   2.89701
 Alpha virt. eigenvalues --    2.90008   2.90348   2.91159   2.91627   2.93351
 Alpha virt. eigenvalues --    2.94199   2.94333   2.94731   2.95104   2.95878
 Alpha virt. eigenvalues --    2.96008   2.96466   2.96783   2.97669   2.98350
 Alpha virt. eigenvalues --    2.98375   2.98792   2.99049   2.99262   3.00097
 Alpha virt. eigenvalues --    3.00217   3.00802   3.01238   3.01549   3.02016
 Alpha virt. eigenvalues --    3.03482   3.04163   3.05521   3.05637   3.06166
 Alpha virt. eigenvalues --    3.07447   3.07945   3.08298   3.10961   3.11835
 Alpha virt. eigenvalues --    3.12383   3.12427   3.12829   3.13483   3.13618
 Alpha virt. eigenvalues --    3.13928   3.14151   3.14457   3.15197   3.15348
 Alpha virt. eigenvalues --    3.15566   3.16031   3.16505   3.16717   3.17539
 Alpha virt. eigenvalues --    3.18919   3.19079   3.20488   3.21085   3.21588
 Alpha virt. eigenvalues --    3.22509   3.22592   3.23165   3.23275   3.24028
 Alpha virt. eigenvalues --    3.24447   3.25373   3.26103   3.27183   3.27485
 Alpha virt. eigenvalues --    3.29130   3.30099   3.30400   3.31499   3.32513
 Alpha virt. eigenvalues --    3.32550   3.32909   3.34982   3.35615   3.37281
 Alpha virt. eigenvalues --    3.41086   3.42666   3.43950   3.45169   3.45516
 Alpha virt. eigenvalues --    3.46564   3.46949   3.47274   3.47836   3.48541
 Alpha virt. eigenvalues --    3.50303   3.51581   3.51920   3.52300   3.52555
 Alpha virt. eigenvalues --    3.53195   3.53264   3.56845   3.65561   3.68752
 Alpha virt. eigenvalues --    3.75602   3.90270   3.91090   3.95660   3.98486
 Alpha virt. eigenvalues --    4.01484   4.05502   4.09250   4.12305   4.13420
 Alpha virt. eigenvalues --    4.13784   4.15203   4.15450   4.15995   4.17056
 Alpha virt. eigenvalues --    4.18050   4.18549   4.19201   4.19995   4.20258
 Alpha virt. eigenvalues --    4.20982   4.22114   4.22324   4.23802   4.24319
 Alpha virt. eigenvalues --    4.25156   4.25270   4.27311   4.27516   4.28851
 Alpha virt. eigenvalues --    4.29966   4.31616   4.32138   4.32386   4.33247
 Alpha virt. eigenvalues --    4.33691   4.34028   4.34213   4.34713   4.34905
 Alpha virt. eigenvalues --    4.35500   4.35861   4.36231   4.36528   4.36717
 Alpha virt. eigenvalues --    4.37299   4.37780   4.38826   4.38992   4.39646
 Alpha virt. eigenvalues --    4.39774   4.40370   4.40665   4.40960   4.41271
 Alpha virt. eigenvalues --    4.41562   4.41703   4.42224   4.43827   4.44368
 Alpha virt. eigenvalues --    4.44989   4.45017   4.45550   4.46298   4.47343
 Alpha virt. eigenvalues --    4.50221   4.51821   4.52472   4.54538   4.56517
 Alpha virt. eigenvalues --    4.57498   4.59587   4.65248   4.77828   4.77952
 Alpha virt. eigenvalues --    4.78281   4.78578   4.79130   4.79169   5.55838
 Alpha virt. eigenvalues --    5.73643   5.83001   5.87451   5.91853   5.93793
 Alpha virt. eigenvalues --    5.96719   5.97907   5.99902   6.00526   6.02211
 Alpha virt. eigenvalues --    6.02835   6.04079   6.07608   6.09839   6.12353
 Alpha virt. eigenvalues --    6.17486   6.22742   6.32260   6.34324   6.34863
 Alpha virt. eigenvalues --    6.62379   6.62845   6.64502   6.65180   6.66097
 Alpha virt. eigenvalues --    6.67008   6.68830   6.70292   6.74414   6.77753
 Alpha virt. eigenvalues --    6.78517   6.78977   6.79954   6.81023   6.82597
 Alpha virt. eigenvalues --    6.85235   6.86107   6.88327   6.90197   6.90849
 Alpha virt. eigenvalues --    6.91140   6.91782   6.92383   6.93692   6.95016
 Alpha virt. eigenvalues --    6.96302   6.97102   6.98877   7.00440   7.02991
 Alpha virt. eigenvalues --    7.05080   7.06108   7.07215   7.08401   7.08627
 Alpha virt. eigenvalues --    7.10545   7.11819   7.15162   7.23903   7.24306
 Alpha virt. eigenvalues --    7.24998   7.26164   7.26814   7.28054   7.71624
 Alpha virt. eigenvalues --    7.76589   7.77322   7.79864   7.81015   7.86920
 Alpha virt. eigenvalues --    8.47967   8.49078   8.49394   8.50210   8.50574
 Alpha virt. eigenvalues --    8.51559   8.51919   8.55466   8.62376   9.05153
 Alpha virt. eigenvalues --    9.92107  10.05227  10.08236  10.14201  10.28375
 Alpha virt. eigenvalues --   14.15950  14.21173  14.22884  14.23744  14.37897
 Alpha virt. eigenvalues --   15.79605  16.94234  17.02811  17.03742  17.03979
 Alpha virt. eigenvalues --   17.04023  17.04307  17.05180  17.05379  17.05424
 Alpha virt. eigenvalues --   17.06488  17.07525  17.07755  17.08368  17.08725
 Alpha virt. eigenvalues --   17.10326  17.10881  17.13353  17.14591  17.14707
 Alpha virt. eigenvalues --   17.15909  17.16379  17.17852  17.19745  17.21613
 Alpha virt. eigenvalues --   17.23078  17.24383  17.25451  17.27269  17.28502
 Alpha virt. eigenvalues --   17.29570  17.31244  17.32210  17.33067  17.33238
 Alpha virt. eigenvalues --   17.33403  17.35065  17.35867  17.37453  17.39039
 Alpha virt. eigenvalues --   17.43226  20.31606  20.34034  20.37327  20.38571
 Alpha virt. eigenvalues --   20.39415  20.41417  20.41996  20.50251  20.51469
 Alpha virt. eigenvalues --   21.09677  21.16928  21.37195  25.52670  25.67362
 Alpha virt. eigenvalues --   25.75173  26.19959  31.74323  31.75946  31.80080
 Alpha virt. eigenvalues --   31.82870  31.87271  42.94251  43.02378  43.04192
 Alpha virt. eigenvalues --   43.08387  43.16642  61.86647  61.92864  63.15034
 Alpha virt. eigenvalues --   65.24673  65.26311  65.40177  82.23559  86.19836
 Alpha virt. eigenvalues --   86.25820  86.42273  89.17791  89.29350  89.29647
 Alpha virt. eigenvalues --   89.30112  89.30349  89.30753  89.30935  89.32040
 Alpha virt. eigenvalues --   89.32092  89.32911  89.33081  89.33652  89.34308
 Alpha virt. eigenvalues --   89.35550  89.35671  89.36880  89.38333  89.39619
 Alpha virt. eigenvalues --   89.40226  89.41598  89.42412  89.43630  89.45786
 Alpha virt. eigenvalues --   89.48047  89.49256  89.50806  89.51756  89.53559
 Alpha virt. eigenvalues --   89.54437  89.55765  89.57338  89.58964  89.60893
 Alpha virt. eigenvalues --   89.61332  89.61443  89.62582  89.63505  89.64391
 Alpha virt. eigenvalues --   89.65152  89.68531 112.74998 112.76750 112.79027
 Alpha virt. eigenvalues --  112.80374 112.80932 112.81780 112.82142 112.89260
 Alpha virt. eigenvalues --  112.89904 121.86777 121.97258 122.03471 239.31663
 Alpha virt. eigenvalues --  257.33981 282.57167 282.58522 282.71115 332.19725
 Alpha virt. eigenvalues --  332.26258 428.78752 428.83647 428.96455 590.23792
 Alpha virt. eigenvalues --  590.31911 590.36717 773.01272 839.704881043.72195
 Alpha virt. eigenvalues -- 1043.733681043.847662068.610122530.071665495.40825
 Alpha virt. eigenvalues -- 5634.621825634.637115634.77900********************
 Alpha virt. eigenvalues -- **********
          Condensed to atoms (all electrons):
 Mulliken charges:
               1
     1  Pt  -0.107236
     2  P    1.033518
     3  C   -0.779650
     4  C    0.203236
     5  C    0.375738
     6  C   -0.123897
     7  H    0.092155
     8  C   -0.078580
     9  H    0.111472
    10  C   -0.481738
    11  H    0.140662
    12  H    0.137883
    13  H    0.152972
    14  C   -0.635341
    15  C    0.160309
    16  C    0.466323
    17  C   -0.254834
    18  H    0.096812
    19  C   -0.006192
    20  H    0.087519
    21  C   -0.530760
    22  H    0.144650
    23  H    0.145330
    24  H    0.153978
    25  C   -0.666697
    26  C    0.296632
    27  C    0.232890
    28  C    0.077388
    29  H    0.104167
    30  C   -0.282434
    31  H    0.121239
    32  C   -0.602254
    33  H    0.146073
    34  H    0.143963
    35  H    0.153340
    36  Sn  -0.488890
    37  P    1.705513
    38  C   -1.019563
    39  C    0.473307
    40  C    0.315246
    41  C   -0.099709
    42  H    0.106849
    43  C   -0.143566
    44  H    0.109104
    45  C   -0.527669
    46  H    0.148069
    47  H    0.147249
    48  H    0.152939
    49  C   -0.860648
    50  C    0.302771
    51  C    0.303852
    52  C   -0.028022
    53  H    0.089376
    54  C   -0.098009
    55  H    0.072230
    56  C   -0.576864
    57  H    0.146048
    58  H    0.139613
    59  H    0.147861
    60  C   -0.601668
    61  C    0.001602
    62  C    0.397926
    63  C   -0.093244
    64  H    0.072760
    65  C   -0.025648
    66  H    0.064701
    67  C   -0.506986
    68  H    0.144373
    69  H    0.137691
    70  H    0.145406
    71  Br  -0.403375
    72  Br  -0.180419
    73  Br  -0.158744
    74  C   -0.028859
    75  H    0.053627
    76  H    0.060889
    77  C   -0.143642
    78  H    0.109393
    79  H    0.099542
    80  C   -0.176991
    81  H    0.092862
    82  H    0.099486
    83  C   -0.332186
    84  H    0.137262
    85  H    0.144615
    86  H    0.143903
 Sum of Mulliken charges =   0.00000
 Mulliken charges with hydrogens summed into heavy atoms:
               1
     1  Pt  -0.107236
     2  P    1.033518
     3  C   -0.779650
     4  C    0.295391
     5  C    0.487210
     6  C    0.016765
     8  C    0.059303
    10  C   -0.328766
    14  C   -0.635341
    15  C    0.257121
    16  C    0.553843
    17  C   -0.110184
    19  C    0.139137
    21  C   -0.376781
    25  C   -0.666697
    26  C    0.400799
    27  C    0.354129
    28  C    0.223461
    30  C   -0.138471
    32  C   -0.448915
    36  Sn  -0.488890
    37  P    1.705513
    38  C   -1.019563
    39  C    0.580156
    40  C    0.424350
    41  C    0.048360
    43  C    0.003683
    45  C   -0.374730
    49  C   -0.860648
    50  C    0.392148
    51  C    0.376082
    52  C    0.118026
    54  C    0.041604
    56  C   -0.429003
    60  C   -0.601668
    61  C    0.074363
    62  C    0.462628
    63  C    0.051129
    65  C    0.112043
    67  C   -0.361581
    71  Br  -0.403375
    72  Br  -0.180419
    73  Br  -0.158744
    74  C    0.085658
    77  C    0.065293
    80  C    0.015357
    83  C    0.093594
 Electronic spatial extent (au):  <R**2>=          34321.3077
 Charge=              0.0000 electrons
 Dipole moment (field-independent basis, Debye):
    X=              4.9181    Y=             -2.2171    Z=             -0.6693  Tot=              5.4361
 Quadrupole moment (field-independent basis, Debye-Ang):
   XX=           -305.5743   YY=           -392.6244   ZZ=           -330.5950
   XY=              3.3526   XZ=              1.2812   YZ=              7.4016
 Traceless Quadrupole moment (field-independent basis, Debye-Ang):
   XX=             37.3569   YY=            -49.6931   ZZ=             12.3362
   XY=              3.3526   XZ=              1.2812   YZ=              7.4016
 Octapole moment (field-independent basis, Debye-Ang**2):
  XXX=              6.6489  YYY=              6.1848  ZZZ=             22.0335  XYY=            -11.6200
  XXY=             -9.0896  XXZ=            -20.8065  XZZ=             10.6769  YZZ=            -41.0430
  YYZ=            -25.7389  XYZ=              3.3964
 Hexadecapole moment (field-independent basis, Debye-Ang**3):
 XXXX=         -18771.2495 YYYY=         -15895.5081 ZZZZ=          -8053.9780 XXXY=            116.0835
 XXXZ=             83.2452 YYYX=           -523.2442 YYYZ=             48.4007 ZZZX=           -135.3844
 ZZZY=            -41.5770 XXYY=          -5372.9022 XXZZ=          -4186.3578 YYZZ=          -3977.2286
 XXYZ=             30.7588 YYXZ=             79.6604 ZZXY=            282.8459
 N-N= 1.577228436488D+04 E-N=-1.098139975805D+05  KE= 3.258680067356D+04
 Calculating spin-rotation constants.
 Leave Link  601 at Sun Dec  1 23:00:25 2019, MaxMem=   939524096 cpu:      1199.7
 (Enter /scr/programas/g09/l9999.exe)
 1\1\GINC-NQTCM\SP\RPBEPBE\Gen\C40H39Br3P2Pt1Sn1\NQTCM\01-Dec-2019\0\\#
 PBEPBE/gen scf=(maxcycle=500,conver=3) NMR=GIAO Scrf=(solvent=Dichloro
 methane)\\estrutura 111\\0,1\Pt,0,0.030457,0.78661,-0.029152\P,0,2.444
 342,0.713239,0.004998\C,0,3.446744,-0.836562,-0.191552\C,0,4.177151,-1
 .414906,0.858486\C,0,3.543598,-1.399255,-1.476659\C,0,4.992459,-2.5275
 24,0.624759\H,0,4.12795,-0.997721,1.863969\C,0,4.358733,-2.509094,-1.7
 06966\H,0,2.992653,-0.963069,-2.311962\C,0,5.088045,-3.075773,-0.65675
 7\H,0,5.558961,-2.961566,1.452393\H,0,4.422824,-2.931009,-2.712933\H,0
 ,5.73105,-3.940781,-0.838489\C,0,2.978968,1.399273,1.630829\C,0,3.7991
 21,2.531324,1.752666\C,0,2.493343,0.775776,2.794996\C,0,4.143204,3.018
 128,3.018262\H,0,4.162481,3.04824,0.86426\C,0,2.844221,1.26243,4.05678
 3\H,0,1.838587,-0.096625,2.71881\C,0,3.672051,2.385163,4.171153\H,0,4.
 780554,3.902882,3.09757\H,0,2.463719,0.765635,4.952663\H,0,3.9426,2.76
 7613,5.158475\C,0,3.226106,1.729265,-1.325352\C,0,4.630565,1.807428,-1
 .398462\C,0,2.45697,2.35657,-2.316135\C,0,5.247545,2.525122,-2.424626\
 H,0,5.250709,1.294958,-0.660348\C,0,3.079099,3.063709,-3.351354\H,0,1.
 369499,2.296481,-2.277626\C,0,4.472211,3.156301,-3.403735\H,0,6.338433
 ,2.580558,-2.465002\H,0,2.467515,3.544733,-4.118527\H,0,4.955804,3.712
 865,-4.210553\Sn,0,-0.389637,-1.822535,-0.043498\P,0,-2.347848,1.06691
 4,-0.068639\C,0,-3.041238,2.77977,-0.045577\C,0,-3.176473,3.496198,-1.
 247504\C,0,-3.425282,3.38754,1.160297\C,0,-3.700565,4.791246,-1.241396
 \H,0,-2.879422,3.045266,-2.196388\C,0,-3.949056,4.684056,1.161503\H,0,
 -3.321866,2.853622,2.106194\C,0,-4.090443,5.387715,-0.037908\H,0,-3.80
 6317,5.335103,-2.183342\H,0,-4.249241,5.142804,2.106621\H,0,-4.504224,
 6.399375,-0.0352\C,0,-3.077036,0.386585,-1.627158\C,0,-4.464221,0.3172
 33,-1.86214\C,0,-2.201392,0.022321,-2.665554\C,0,-4.95433,-0.158093,-3
 .080361\H,0,-5.180159,0.653834,-1.112358\C,0,-2.694718,-0.43284,-3.893
 432\H,0,-1.122303,0.108964,-2.521203\C,0,-4.071567,-0.536923,-4.098329
 \H,0,-6.033751,-0.220697,-3.237094\H,0,-1.994734,-0.704737,-4.686695\H
 ,0,-4.459051,-0.900646,-5.053293\C,0,-3.108779,0.300397,1.435981\C,0,-
 4.458106,-0.084264,1.532402\C,0,-2.290735,0.177295,2.574385\C,0,-4.968
 132,-0.592159,2.729602\H,0,-5.128471,0.000602,0.679741\C,0,-2.805995,-
 0.323017,3.774542\H,0,-1.240624,0.475299,2.526094\C,0,-4.145209,-0.712
 474,3.854364\H,0,-6.017609,-0.892358,2.781617\H,0,-2.152824,-0.409542,
 4.645852\H,0,-4.548393,-1.107787,4.790007\Br,0,0.317823,3.351361,0.292
 193\Br,0,0.489796,-3.05058,-2.171534\Br,0,0.938618,-2.893534,1.939307\
 C,0,-2.348119,-2.834615,0.143028\H,0,-2.661343,-2.652246,1.182759\H,0,
 -2.996359,-2.229128,-0.508122\C,0,-2.450358,-4.316431,-0.226585\H,0,-3
 .525957,-4.547543,-0.35566\H,0,-1.990156,-4.496969,-1.213839\C,0,-1.86
 8421,-5.295416,0.798722\H,0,-0.787675,-5.112988,0.917694\H,0,-2.316987
 ,-5.086773,1.787516\C,0,-2.102237,-6.761672,0.432249\H,0,-1.618288,-7.
 019613,-0.524916\H,0,-1.69531,-7.437296,1.201809\H,0,-3.178092,-6.9834
 7,0.329292\\Version=EM64L-G09RevD.01\State=1-A\HF=-33023.9231328\RMSD=
 2.251e-04\Dipole=-1.9349491,0.8722716,-0.2633292\Quadrupole=27.7739499
 ,-36.9456259,9.171676,2.4926014,-0.9525309,-5.5029391\PG=C01 [X(C40H39
 Br3P2Pt1Sn1)]\\@


 THE SOLUTION TO A PROBLEM CHANGES THE PROBLEM.

                                 -- JOHN PEERS
           PAUL DICKSON'S "THE OFFICIAL RULES"
 Job cpu time:       1 days 19 hours 29 minutes 53.8 seconds.
 File lengths (MBytes):  RWF=   2644 Int=      0 D2E=      0 Chk=    189 Scr=      1
 Normal termination of Gaussian 09 at Sun Dec  1 23:00:25 2019.
