 Entering Gaussian System, Link 0=g09
 Input=/home/nqtcm/diego/estrutura80.com
 Output=/home/nqtcm/diego/estrutura80.log
 Initial command:
 /scr/programas/g09/l1.exe "/scr/nqtcm/Gau-31317.inp" -scrdir="/scr/nqtcm/"
 Entering Link 1 = /scr/programas/g09/l1.exe PID=     31319.
  
 Copyright (c) 1988,1990,1992,1993,1995,1998,2003,2009,2013,
            Gaussian, Inc.  All Rights Reserved.
  
 This is part of the Gaussian(R) 09 program.  It is based on
 the Gaussian(R) 03 system (copyright 2003, Gaussian, Inc.),
 the Gaussian(R) 98 system (copyright 1998, Gaussian, Inc.),
 the Gaussian(R) 94 system (copyright 1995, Gaussian, Inc.),
 the Gaussian 92(TM) system (copyright 1992, Gaussian, Inc.),
 the Gaussian 90(TM) system (copyright 1990, Gaussian, Inc.),
 the Gaussian 88(TM) system (copyright 1988, Gaussian, Inc.),
 the Gaussian 86(TM) system (copyright 1986, Carnegie Mellon
 University), and the Gaussian 82(TM) system (copyright 1983,
 Carnegie Mellon University). Gaussian is a federally registered
 trademark of Gaussian, Inc.
  
 This software contains proprietary and confidential information,
 including trade secrets, belonging to Gaussian, Inc.
  
 This software is provided under written license and may be
 used, copied, transmitted, or stored only in accord with that
 written license.
  
 The following legend is applicable only to US Government
 contracts under FAR:
  
                    RESTRICTED RIGHTS LEGEND
  
 Use, reproduction and disclosure by the US Government is
 subject to restrictions as set forth in subparagraphs (a)
 and (c) of the Commercial Computer Software - Restricted
 Rights clause in FAR 52.227-19.
  
 Gaussian, Inc.
 340 Quinnipiac St., Bldg. 40, Wallingford CT 06492
  
  
 ---------------------------------------------------------------
 Warning -- This program may not be used in any manner that
 competes with the business of Gaussian, Inc. or will provide
 assistance to any competitor of Gaussian, Inc.  The licensee
 of this program is prohibited from giving any competitor of
 Gaussian, Inc. access to this program.  By using this program,
 the user acknowledges that Gaussian, Inc. is engaged in the
 business of creating and licensing software in the field of
 computational chemistry and represents and warrants to the
 licensee that it is not a competitor of Gaussian, Inc. and that
 it will not use this program in any manner prohibited above.
 ---------------------------------------------------------------
  

 Cite this work as:
 Gaussian 09, Revision D.01,
 M. J. Frisch, G. W. Trucks, H. B. Schlegel, G. E. Scuseria, 
 M. A. Robb, J. R. Cheeseman, G. Scalmani, V. Barone, B. Mennucci, 
 G. A. Petersson, H. Nakatsuji, M. Caricato, X. Li, H. P. Hratchian, 
 A. F. Izmaylov, J. Bloino, G. Zheng, J. L. Sonnenberg, M. Hada, 
 M. Ehara, K. Toyota, R. Fukuda, J. Hasegawa, M. Ishida, T. Nakajima, 
 Y. Honda, O. Kitao, H. Nakai, T. Vreven, J. A. Montgomery, Jr., 
 J. E. Peralta, F. Ogliaro, M. Bearpark, J. J. Heyd, E. Brothers, 
 K. N. Kudin, V. N. Staroverov, T. Keith, R. Kobayashi, J. Normand, 
 K. Raghavachari, A. Rendell, J. C. Burant, S. S. Iyengar, J. Tomasi, 
 M. Cossi, N. Rega, J. M. Millam, M. Klene, J. E. Knox, J. B. Cross, 
 V. Bakken, C. Adamo, J. Jaramillo, R. Gomperts, R. E. Stratmann, 
 O. Yazyev, A. J. Austin, R. Cammi, C. Pomelli, J. W. Ochterski, 
 R. L. Martin, K. Morokuma, V. G. Zakrzewski, G. A. Voth, 
 P. Salvador, J. J. Dannenberg, S. Dapprich, A. D. Daniels, 
 O. Farkas, J. B. Foresman, J. V. Ortiz, J. Cioslowski, 
 and D. J. Fox, Gaussian, Inc., Wallingford CT, 2013.
 
 ******************************************
 Gaussian 09:  EM64L-G09RevD.01 24-Apr-2013
                26-Aug-2019 
 ******************************************
 %mem=7Gb
 %nproc=4
 Will use up to    4 processors via shared memory.
 ----------------------------------------------------------------------
 #PBEPBE/gen scf=(maxcycle=500,conver=4) NMR=GIAO Scrf=(solvent=Dichlor
 omethane)
 ----------------------------------------------------------------------
 1/38=1/1;
 2/12=2,17=6,18=5,40=1/2;
 3/5=7,11=2,16=1,25=1,30=1,70=2201,72=9,74=1009/1,2,8,3;
 4//1;
 5/5=2,6=4,7=500,38=5,53=9/2;
 8/6=1,10=90,11=11/1;
 10/13=100,45=16/2;
 6/7=2,8=2,9=2,10=2,28=1/1;
 99/9=1/99;
 Leave Link    1 at Mon Aug 26 00:10:02 2019, MaxMem=   939524096 cpu:         0.2
 (Enter /scr/programas/g09/l101.exe)
 ------------
 estrutura 80
 ------------
 Symbolic Z-matrix:
 Charge =  0 Multiplicity = 1
 Pt                   -0.06038  -0.0386    0.23059 
 P                    -0.21437   2.36873   0.2906 
 P                     0.15766  -2.42842   0.16364 
 C                    -0.18286   3.01961  -1.44342 
 H                    -0.97551   2.46646  -1.97182 
 H                     0.77246   2.66998  -1.87009 
 C                    -0.35535   4.52697  -1.65341 
 H                     0.38509   5.11888  -1.09366 
 H                    -0.22956   4.76941  -2.7211 
 H                    -1.35887   4.86848  -1.35784 
 C                    -1.83162   2.91734   1.04428 
 H                    -2.07596   2.16975   1.814 
 C                     1.06609   3.33438   1.22881 
 H                     0.61227   4.31503   1.43364 
 H                     1.17553   2.83351   2.20362 
 C                     2.43233   3.53982   0.57104 
 H                     3.0684    4.14252   1.23922 
 H                     2.95224   2.59338   0.37667 
 H                     2.35185   4.08765  -0.38039 
 C                    -1.03563  -3.32001   1.2681 
 H                    -0.83629  -4.39931   1.16263 
 H                    -2.03852  -3.15368   0.85004 
 C                    -0.96477  -2.88543   2.73502 
 H                     0.03968  -3.04497   3.16441 
 H                    -1.21334  -1.81982   2.84762 
 H                    -1.67149  -3.46891   3.3434 
 C                     1.82776  -3.08735   0.6463 
 H                     2.52295  -2.73702  -0.13516 
 H                     2.12738  -2.55889   1.56514 
 C                     1.9381   -4.60313   0.83416 
 H                     2.99456  -4.88152   0.99131 
 H                     1.37435  -4.95348   1.71407 
 H                     1.58359  -5.16376  -0.0425 
 C                    -0.15124  -3.15177  -1.51793 
 H                     0.10763  -4.2219   -1.46516 
 H                    -1.2378   -3.09837  -1.69804 
 C                     0.61457  -2.46169  -2.65112 
 H                     0.3333   -2.90178  -3.62072 
 H                     0.38273  -1.38509  -2.68936 
 H                     1.70661  -2.56586  -2.54283 
 Sn                   -2.71785  -0.23376  -0.36541 
 Cl                   -4.25692   0.1091    1.51148 
 Cl                   -3.70135   1.33135  -1.98521 
 Cl                   -3.80054  -2.26283  -1.21877 
 C                    -1.95321   4.32454   1.6379 
 H                    -2.99258   4.48498   1.96706 
 H                    -1.30931   4.45879   2.52013 
 H                    -1.71191   5.11655   0.9138 
 H                    -2.57488   2.78027   0.24118 
 C                     1.92672   0.09904   0.72539 
 C                     2.91525   0.06265  -0.27447 
 C                     2.33609   0.21056   2.06603 
 C                     4.2672    0.1371    0.07709 
 H                     2.6401   -0.02007  -1.32774 
 C                     3.69345   0.29023   2.39899 
 H                     1.5927    0.23695   2.86728 
 C                     4.67804   0.25472   1.40624 
 H                     3.99238   0.38213   3.44684 
 H                     5.73687   0.31892   1.66083 
 Br                    5.5943    0.08258  -1.30735 
 
 NAtoms=     60 NQM=       60 NQMF=       0 NMMI=      0 NMMIF=      0
                NMic=       0 NMicF=      0.
                    Isotopes and Nuclear Properties:
 (Nuclear quadrupole moments (NQMom) in fm**2, nuclear magnetic moments (NMagM)
  in nuclear magnetons)

  Atom         1           2           3           4           5           6           7           8           9          10
 IAtWgt=         195          31          31          12           1           1          12           1           1           1
 AtmWgt= 194.9648000  30.9737634  30.9737634  12.0000000   1.0078250   1.0078250  12.0000000   1.0078250   1.0078250   1.0078250
 NucSpn=           1           1           1           0           1           1           0           1           1           1
 AtZEff=   0.0000000   0.0000000   0.0000000   0.0000000   0.0000000   0.0000000   0.0000000   0.0000000   0.0000000   0.0000000
 NQMom=    0.0000000   0.0000000   0.0000000   0.0000000   0.0000000   0.0000000   0.0000000   0.0000000   0.0000000   0.0000000
 NMagM=    0.6095000   1.1316000   1.1316000   0.0000000   2.7928460   2.7928460   0.0000000   2.7928460   2.7928460   2.7928460
 AtZNuc=  78.0000000  15.0000000  15.0000000   6.0000000   1.0000000   1.0000000   6.0000000   1.0000000   1.0000000   1.0000000

  Atom        11          12          13          14          15          16          17          18          19          20
 IAtWgt=          12           1          12           1           1          12           1           1           1          12
 AtmWgt=  12.0000000   1.0078250  12.0000000   1.0078250   1.0078250  12.0000000   1.0078250   1.0078250   1.0078250  12.0000000
 NucSpn=           0           1           0           1           1           0           1           1           1           0
 AtZEff=   0.0000000   0.0000000   0.0000000   0.0000000   0.0000000   0.0000000   0.0000000   0.0000000   0.0000000   0.0000000
 NQMom=    0.0000000   0.0000000   0.0000000   0.0000000   0.0000000   0.0000000   0.0000000   0.0000000   0.0000000   0.0000000
 NMagM=    0.0000000   2.7928460   0.0000000   2.7928460   2.7928460   0.0000000   2.7928460   2.7928460   2.7928460   0.0000000
 AtZNuc=   6.0000000   1.0000000   6.0000000   1.0000000   1.0000000   6.0000000   1.0000000   1.0000000   1.0000000   6.0000000

  Atom        21          22          23          24          25          26          27          28          29          30
 IAtWgt=           1           1          12           1           1           1          12           1           1          12
 AtmWgt=   1.0078250   1.0078250  12.0000000   1.0078250   1.0078250   1.0078250  12.0000000   1.0078250   1.0078250  12.0000000
 NucSpn=           1           1           0           1           1           1           0           1           1           0
 AtZEff=   0.0000000   0.0000000   0.0000000   0.0000000   0.0000000   0.0000000   0.0000000   0.0000000   0.0000000   0.0000000
 NQMom=    0.0000000   0.0000000   0.0000000   0.0000000   0.0000000   0.0000000   0.0000000   0.0000000   0.0000000   0.0000000
 NMagM=    2.7928460   2.7928460   0.0000000   2.7928460   2.7928460   2.7928460   0.0000000   2.7928460   2.7928460   0.0000000
 AtZNuc=   1.0000000   1.0000000   6.0000000   1.0000000   1.0000000   1.0000000   6.0000000   1.0000000   1.0000000   6.0000000

  Atom        31          32          33          34          35          36          37          38          39          40
 IAtWgt=           1           1           1          12           1           1          12           1           1           1
 AtmWgt=   1.0078250   1.0078250   1.0078250  12.0000000   1.0078250   1.0078250  12.0000000   1.0078250   1.0078250   1.0078250
 NucSpn=           1           1           1           0           1           1           0           1           1           1
 AtZEff=   0.0000000   0.0000000   0.0000000   0.0000000   0.0000000   0.0000000   0.0000000   0.0000000   0.0000000   0.0000000
 NQMom=    0.0000000   0.0000000   0.0000000   0.0000000   0.0000000   0.0000000   0.0000000   0.0000000   0.0000000   0.0000000
 NMagM=    2.7928460   2.7928460   2.7928460   0.0000000   2.7928460   2.7928460   0.0000000   2.7928460   2.7928460   2.7928460
 AtZNuc=   1.0000000   1.0000000   1.0000000   6.0000000   1.0000000   1.0000000   6.0000000   1.0000000   1.0000000   1.0000000

  Atom        41          42          43          44          45          46          47          48          49          50
 IAtWgt=         118          35          35          35          12           1           1           1           1          12
 AtmWgt= 117.9018000  34.9688527  34.9688527  34.9688527  12.0000000   1.0078250   1.0078250   1.0078250   1.0078250  12.0000000
 NucSpn=           0           3           3           3           0           1           1           1           1           0
 AtZEff=   0.0000000   0.0000000   0.0000000   0.0000000   0.0000000   0.0000000   0.0000000   0.0000000   0.0000000   0.0000000
 NQMom=    0.0000000  -8.1650000  -8.1650000  -8.1650000   0.0000000   0.0000000   0.0000000   0.0000000   0.0000000   0.0000000
 NMagM=    0.0000000   0.8218740   0.8218740   0.8218740   0.0000000   2.7928460   2.7928460   2.7928460   2.7928460   0.0000000
 AtZNuc=  50.0000000  17.0000000  17.0000000  17.0000000   6.0000000   1.0000000   1.0000000   1.0000000   1.0000000   6.0000000

  Atom        51          52          53          54          55          56          57          58          59          60
 IAtWgt=          12          12          12           1          12           1          12           1           1          79
 AtmWgt=  12.0000000  12.0000000  12.0000000   1.0078250  12.0000000   1.0078250  12.0000000   1.0078250   1.0078250  78.9183361
 NucSpn=           0           0           0           1           0           1           0           1           1           3
 AtZEff=   0.0000000   0.0000000   0.0000000   0.0000000   0.0000000   0.0000000   0.0000000   0.0000000   0.0000000   0.0000000
 NQMom=    0.0000000   0.0000000   0.0000000   0.0000000   0.0000000   0.0000000   0.0000000   0.0000000   0.0000000  31.3000000
 NMagM=    0.0000000   0.0000000   0.0000000   2.7928460   0.0000000   2.7928460   0.0000000   2.7928460   2.7928460   2.1063990
 AtZNuc=   6.0000000   6.0000000   6.0000000   1.0000000   6.0000000   1.0000000   6.0000000   1.0000000   1.0000000  35.0000000
 Leave Link  101 at Mon Aug 26 00:10:02 2019, MaxMem=   939524096 cpu:         0.5
 (Enter /scr/programas/g09/l202.exe)
 Stoichiometry    C18H34BrCl3P2PtSn
 Framework group  C1[X(C18H34BrCl3P2PtSn)]
 Deg. of freedom   174
 Full point group                 C1      NOp   1
 Largest Abelian subgroup         C1      NOp   1
 Largest concise Abelian subgroup C1      NOp   1
                         Standard orientation:                         
 ---------------------------------------------------------------------
 Center     Atomic      Atomic             Coordinates (Angstroms)
 Number     Number       Type             X           Y           Z
 ---------------------------------------------------------------------
      1         78           0       -0.060383   -0.038604    0.230592
      2         15           0       -0.214369    2.368733    0.290604
      3         15           0        0.157659   -2.428419    0.163637
      4          6           0       -0.182858    3.019615   -1.443424
      5          1           0       -0.975506    2.466455   -1.971817
      6          1           0        0.772458    2.669977   -1.870092
      7          6           0       -0.355345    4.526966   -1.653406
      8          1           0        0.385091    5.118876   -1.093661
      9          1           0       -0.229557    4.769406   -2.721095
     10          1           0       -1.358866    4.868476   -1.357837
     11          6           0       -1.831618    2.917338    1.044281
     12          1           0       -2.075960    2.169745    1.813997
     13          6           0        1.066090    3.334384    1.228813
     14          1           0        0.612272    4.315029    1.433640
     15          1           0        1.175535    2.833506    2.203623
     16          6           0        2.432332    3.539822    0.571039
     17          1           0        3.068403    4.142518    1.239216
     18          1           0        2.952240    2.593376    0.376670
     19          1           0        2.351851    4.087652   -0.380392
     20          6           0       -1.035631   -3.320012    1.268100
     21          1           0       -0.836287   -4.399308    1.162632
     22          1           0       -2.038524   -3.153676    0.850036
     23          6           0       -0.964774   -2.885428    2.735015
     24          1           0        0.039678   -3.044974    3.164415
     25          1           0       -1.213343   -1.819815    2.847619
     26          1           0       -1.671490   -3.468912    3.343398
     27          6           0        1.827756   -3.087345    0.646296
     28          1           0        2.522952   -2.737021   -0.135161
     29          1           0        2.127384   -2.558893    1.565139
     30          6           0        1.938096   -4.603135    0.834163
     31          1           0        2.994564   -4.881516    0.991314
     32          1           0        1.374350   -4.953479    1.714065
     33          1           0        1.583593   -5.163763   -0.042499
     34          6           0       -0.151238   -3.151767   -1.517930
     35          1           0        0.107627   -4.221902   -1.465162
     36          1           0       -1.237804   -3.098372   -1.698041
     37          6           0        0.614570   -2.461685   -2.651116
     38          1           0        0.333303   -2.901782   -3.620724
     39          1           0        0.382732   -1.385086   -2.689364
     40          1           0        1.706606   -2.565860   -2.542830
     41         50           0       -2.717847   -0.233758   -0.365410
     42         17           0       -4.256920    0.109097    1.511477
     43         17           0       -3.701347    1.331345   -1.985206
     44         17           0       -3.800539   -2.262833   -1.218772
     45          6           0       -1.953209    4.324539    1.637902
     46          1           0       -2.992575    4.484975    1.967063
     47          1           0       -1.309305    4.458792    2.520127
     48          1           0       -1.711913    5.116550    0.913801
     49          1           0       -2.574879    2.780273    0.241178
     50          6           0        1.926722    0.099036    0.725389
     51          6           0        2.915253    0.062653   -0.274473
     52          6           0        2.336094    0.210564    2.066032
     53          6           0        4.267199    0.137099    0.077091
     54          1           0        2.640102   -0.020068   -1.327738
     55          6           0        3.693450    0.290228    2.398986
     56          1           0        1.592704    0.236951    2.867279
     57          6           0        4.678040    0.254721    1.406242
     58          1           0        3.992382    0.382127    3.446844
     59          1           0        5.736866    0.318924    1.660830
     60         35           0        5.594295    0.082577   -1.307350
 ---------------------------------------------------------------------
 Rotational constants (GHZ):      0.1306593      0.0688892      0.0558784
 Leave Link  202 at Mon Aug 26 00:10:02 2019, MaxMem=   939524096 cpu:         0.0
 (Enter /scr/programas/g09/l301.exe)
 General basis read from cards:  (5D, 7F)
 Centers:       5      6      8      9     10     12     14     15     17     18
 Centers:      19     21     22     24     25     26     28     29     31     32
 Centers:      33     35     36     38     39     40     46     47     48     49
 Centers:      54     56     58     59
 S 5 1.00
     Exponent=  2.8295215633D+02 Coefficients=  4.3000000000D-04
     Exponent=  8.7062201949D+01 Coefficients=  5.1000000000D-04
     Exponent=  2.6788369830D+01 Coefficients=  6.1600000000D-03
     Exponent=  8.2425753324D+00 Coefficients=  1.3030000000D-02
     Exponent=  2.5361770254D+00 Coefficients=  9.9490000000D-02
 S 1 1.00
     Exponent=  7.8036216165D-01 Coefficients=  1.0000000000D+00
 S 1 1.00
     Exponent=  2.4011143435D-01 Coefficients=  1.0000000000D+00
 P 1 1.00
     Exponent=  8.8150000000D-01 Coefficients=  1.0000000000D+00
 P 1 1.00
     Exponent=  1.7989200000D-01 Coefficients=  1.0000000000D+00
 ****
 Centers:       4      7     11     13     16     20     23     27     30     34
 Centers:      37     45     50     51     52     53     55     57
 S 6 1.00
     Exponent=  8.8461235339D+03 Coefficients=  5.3000000000D-04
     Exponent=  2.9487078446D+03 Coefficients=  7.7000000000D-04
     Exponent=  9.8290261488D+02 Coefficients=  4.0500000000D-03
     Exponent=  3.2763420496D+02 Coefficients=  1.4030000000D-02
     Exponent=  1.0921140165D+02 Coefficients=  5.3450000000D-02
     Exponent=  3.6403800551D+01 Coefficients=  1.7027000000D-01
 S 1 1.00
     Exponent=  1.2134600184D+01 Coefficients=  1.0000000000D+00
 S 1 1.00
     Exponent=  4.0448667279D+00 Coefficients=  1.0000000000D+00
 S 1 1.00
     Exponent=  1.3482889093D+00 Coefficients=  1.0000000000D+00
 S 1 1.00
     Exponent=  4.4942963643D-01 Coefficients=  1.0000000000D+00
 S 1 1.00
     Exponent=  1.4980987881D-01 Coefficients=  1.0000000000D+00
 P 4 1.00
     Exponent=  3.7294093393D+01 Coefficients=  3.9600000000D-03
     Exponent=  1.1475105659D+01 Coefficients=  1.8890000000D-02
     Exponent=  3.5308017414D+00 Coefficients=  9.4610000000D-02
     Exponent=  1.0864005358D+00 Coefficients=  3.1889000000D-01
 P 1 1.00
     Exponent=  3.3427708794D-01 Coefficients=  1.0000000000D+00
 P 1 1.00
     Exponent=  1.0285448860D-01 Coefficients=  1.0000000000D+00
 D 1 1.00
     Exponent=  4.7750000000D-01 Coefficients=  1.0000000000D+00
 D 1 1.00
     Exponent=  1.1998000000D-01 Coefficients=  1.0000000000D+00
 ****
 Centers:       2      3
 S 7 1.00
     Exponent=  5.9538004301D+04 Coefficients=  9.5000000000D-04
     Exponent=  2.1650183382D+04 Coefficients=  6.1000000000D-04
     Exponent=  7.8727939572D+03 Coefficients=  3.7500000000D-03
     Exponent=  2.8628341663D+03 Coefficients=  9.6300000000D-03
     Exponent=  1.0410306059D+03 Coefficients=  3.2430000000D-02
     Exponent=  3.7855658397D+02 Coefficients=  9.9500000000D-02
     Exponent=  1.3765693962D+02 Coefficients=  2.6570000000D-01
 S 1 1.00
     Exponent=  5.0057068954D+01 Coefficients=  1.0000000000D+00
 S 1 1.00
     Exponent=  1.8202570529D+01 Coefficients=  1.0000000000D+00
 S 1 1.00
     Exponent=  6.6191165560D+00 Coefficients=  1.0000000000D+00
 S 1 1.00
     Exponent=  2.4069514749D+00 Coefficients=  1.0000000000D+00
 S 1 1.00
     Exponent=  8.7525508178D-01 Coefficients=  1.0000000000D+00
 S 1 1.00
     Exponent=  3.1827457519D-01 Coefficients=  1.0000000000D+00
 S 1 1.00
     Exponent=  1.1573620916D-01 Coefficients=  1.0000000000D+00
 S 1 1.00
     Exponent=  4.2085894240D-02 Coefficients=  1.0000000000D+00
 P 5 1.00
     Exponent=  4.8799672315D+02 Coefficients=  2.1600000000D-03
     Exponent=  1.6266557438D+02 Coefficients=  9.7900000000D-03
     Exponent=  5.4221858128D+01 Coefficients=  5.4850000000D-02
     Exponent=  1.8073952709D+01 Coefficients=  2.1770000000D-01
     Exponent=  6.0246509031D+00 Coefficients=  4.8978000000D-01
 P 1 1.00
     Exponent=  2.0082169677D+00 Coefficients=  1.0000000000D+00
 P 1 1.00
     Exponent=  6.6940565590D-01 Coefficients=  1.0000000000D+00
 P 1 1.00
     Exponent=  2.2313521863D-01 Coefficients=  1.0000000000D+00
 P 1 1.00
     Exponent=  7.4378406211D-02 Coefficients=  1.0000000000D+00
 P 1 1.00
     Exponent=  2.4792802070D-02 Coefficients=  1.0000000000D+00
 D 1 1.00
     Exponent=  3.5395000000D-01 Coefficients=  1.0000000000D+00
 D 1 1.00
     Exponent=  8.9098000000D-02 Coefficients=  1.0000000000D+00
 ****
 Centers:      42     43     44
 S 7 1.00
     Exponent=  7.7142817164D+04 Coefficients=  1.0600000000D-03
     Exponent=  2.8051933514D+04 Coefficients=  6.4000000000D-04
     Exponent=  1.0200703096D+04 Coefficients=  3.9600000000D-03
     Exponent=  3.7093465804D+03 Coefficients=  9.8300000000D-03
     Exponent=  1.3488533020D+03 Coefficients=  3.2690000000D-02
     Exponent=  4.9049210981D+02 Coefficients=  9.9520000000D-02
     Exponent=  1.7836076720D+02 Coefficients=  2.6555000000D-01
 S 1 1.00
     Exponent=  6.4858460801D+01 Coefficients=  1.0000000000D+00
 S 1 1.00
     Exponent=  2.3584894837D+01 Coefficients=  1.0000000000D+00
 S 1 1.00
     Exponent=  8.5763253951D+00 Coefficients=  1.0000000000D+00
 S 1 1.00
     Exponent=  3.1186637801D+00 Coefficients=  1.0000000000D+00
 S 1 1.00
     Exponent=  1.1340595564D+00 Coefficients=  1.0000000000D+00
 S 1 1.00
     Exponent=  4.1238529323D-01 Coefficients=  1.0000000000D+00
 S 1 1.00
     Exponent=  1.4995828845D-01 Coefficients=  1.0000000000D+00
 S 1 1.00
     Exponent=  5.4530286708D-02 Coefficients=  1.0000000000D+00
 P 5 1.00
     Exponent=  6.9498536057D+02 Coefficients=  2.0000000000D-03
     Exponent=  2.3166178686D+02 Coefficients=  8.9500000000D-03
     Exponent=  7.7220595619D+01 Coefficients=  5.1130000000D-02
     Exponent=  2.5740198540D+01 Coefficients=  2.1011000000D-01
     Exponent=  8.5800661799D+00 Coefficients=  4.9738000000D-01
 P 1 1.00
     Exponent=  2.8600220600D+00 Coefficients=  1.0000000000D+00
 P 1 1.00
     Exponent=  9.5334068665D-01 Coefficients=  1.0000000000D+00
 P 1 1.00
     Exponent=  3.1778022888D-01 Coefficients=  1.0000000000D+00
 P 1 1.00
     Exponent=  1.0592674296D-01 Coefficients=  1.0000000000D+00
 P 1 1.00
     Exponent=  3.5308914320D-02 Coefficients=  1.0000000000D+00
 D 1 1.00
     Exponent=  5.5696000000D-01 Coefficients=  1.0000000000D+00
 D 1 1.00
     Exponent=  1.5619100000D-01 Coefficients=  1.0000000000D+00
 ****
 Centers:      60
 S 7 1.00
     Exponent=  3.4867099512D+05 Coefficients=  2.4100000000D-03
     Exponent=  1.3946839805D+05 Coefficients=  1.2000000000D-04
     Exponent=  5.5787359218D+04 Coefficients=  5.8500000000D-03
     Exponent=  2.2314943687D+04 Coefficients=  8.2100000000D-03
     Exponent=  8.9259774750D+03 Coefficients=  2.4090000000D-02
     Exponent=  3.5703909900D+03 Coefficients=  5.7250000000D-02
     Exponent=  1.4281563960D+03 Coefficients=  1.4467000000D-01
 S 1 1.00
     Exponent=  5.7126255840D+02 Coefficients=  1.0000000000D+00
 S 1 1.00
     Exponent=  2.2850502336D+02 Coefficients=  1.0000000000D+00
 S 1 1.00
     Exponent=  9.1402009344D+01 Coefficients=  1.0000000000D+00
 S 1 1.00
     Exponent=  3.6560803737D+01 Coefficients=  1.0000000000D+00
 S 1 1.00
     Exponent=  1.4624321495D+01 Coefficients=  1.0000000000D+00
 S 1 1.00
     Exponent=  5.8497285980D+00 Coefficients=  1.0000000000D+00
 S 1 1.00
     Exponent=  2.3398914392D+00 Coefficients=  1.0000000000D+00
 S 1 1.00
     Exponent=  9.3595657568D-01 Coefficients=  1.0000000000D+00
 S 1 1.00
     Exponent=  3.7438263027D-01 Coefficients=  1.0000000000D+00
 S 1 1.00
     Exponent=  1.4975305211D-01 Coefficients=  1.0000000000D+00
 S 1 1.00
     Exponent=  5.9901220843D-02 Coefficients=  1.0000000000D+00
 P 5 1.00
     Exponent=  4.2715043612D+03 Coefficients=  2.0900000000D-03
     Exponent=  1.5532743132D+03 Coefficients=  5.5700000000D-03
     Exponent=  5.6482702297D+02 Coefficients=  3.0250000000D-02
     Exponent=  2.0539164472D+02 Coefficients=  1.2196000000D-01
     Exponent=  7.4687870806D+01 Coefficients=  3.7861000000D-01
 P 1 1.00
     Exponent=  2.7159225748D+01 Coefficients=  1.0000000000D+00
 P 1 1.00
     Exponent=  9.8760820901D+00 Coefficients=  1.0000000000D+00
 P 1 1.00
     Exponent=  3.5913025782D+00 Coefficients=  1.0000000000D+00
 P 1 1.00
     Exponent=  1.3059282103D+00 Coefficients=  1.0000000000D+00
 P 1 1.00
     Exponent=  4.7488298555D-01 Coefficients=  1.0000000000D+00
 P 1 1.00
     Exponent=  1.7268472202D-01 Coefficients=  1.0000000000D+00
 P 1 1.00
     Exponent=  6.2794444370D-02 Coefficients=  1.0000000000D+00
 P 1 1.00
     Exponent=  2.2834343407D-02 Coefficients=  1.0000000000D+00
 D 4 1.00
     Exponent=  1.5776624282D+02 Coefficients=  7.9800000000D-03
     Exponent=  5.2588747607D+01 Coefficients=  4.9870000000D-02
     Exponent=  1.7529582536D+01 Coefficients=  2.2405000000D-01
     Exponent=  5.8431941786D+00 Coefficients=  4.4250000000D-01
 D 1 1.00
     Exponent=  1.9477313929D+00 Coefficients=  1.0000000000D+00
 D 1 1.00
     Exponent=  6.4924379762D-01 Coefficients=  1.0000000000D+00
 F 1 1.00
     Exponent=  1.6480000000D+00 Coefficients=  1.0000000000D+00
 F 1 1.00
     Exponent=  4.5490000000D-01 Coefficients=  1.0000000000D+00
 ****
 Centers:      41
 S 8 1.00
     Exponent=  7.5448214551D+05 Coefficients=  4.4300000000D-03
     Exponent=  3.3532539800D+05 Coefficients=  1.9800000000D-03
     Exponent=  1.4903351022D+05 Coefficients=  9.0500000000D-03
     Exponent=  6.6237115655D+04 Coefficients=  4.8700000000D-03
     Exponent=  2.9438718069D+04 Coefficients=  2.0770000000D-02
     Exponent=  1.3083874697D+04 Coefficients=  3.2900000000D-02
     Exponent=  5.8150554210D+03 Coefficients=  7.7010000000D-02
     Exponent=  2.5844690760D+03 Coefficients=  1.5160000000D-01
 S 1 1.00
     Exponent=  1.1486529227D+03 Coefficients=  1.0000000000D+00
 S 1 1.00
     Exponent=  5.1051241008D+02 Coefficients=  1.0000000000D+00
 S 1 1.00
     Exponent=  2.2689440448D+02 Coefficients=  1.0000000000D+00
 S 1 1.00
     Exponent=  1.0084195755D+02 Coefficients=  1.0000000000D+00
 S 1 1.00
     Exponent=  4.4818647798D+01 Coefficients=  1.0000000000D+00
 S 1 1.00
     Exponent=  1.9919399021D+01 Coefficients=  1.0000000000D+00
 S 1 1.00
     Exponent=  8.8530662317D+00 Coefficients=  1.0000000000D+00
 S 1 1.00
     Exponent=  3.9346961030D+00 Coefficients=  1.0000000000D+00
 S 1 1.00
     Exponent=  1.7487538235D+00 Coefficients=  1.0000000000D+00
 S 1 1.00
     Exponent=  7.7722392158D-01 Coefficients=  1.0000000000D+00
 S 1 1.00
     Exponent=  3.4543285403D-01 Coefficients=  1.0000000000D+00
 S 1 1.00
     Exponent=  1.5352571290D-01 Coefficients=  1.0000000000D+00
 S 1 1.00
     Exponent=  6.8233650180D-02 Coefficients=  1.0000000000D+00
 S 1 1.00
     Exponent=  1.3478251887D-02 Coefficients=  1.0000000000D+00
 P 5 1.00
     Exponent=  1.0090658304D+04 Coefficients=  2.7500000000D-03
     Exponent=  4.0362633217D+03 Coefficients=  4.1800000000D-03
     Exponent=  1.6145053287D+03 Coefficients=  2.0890000000D-02
     Exponent=  6.4580213147D+02 Coefficients=  7.1370000000D-02
     Exponent=  2.5832085259D+02 Coefficients=  2.2613000000D-01
 P 1 1.00
     Exponent=  1.0332834104D+02 Coefficients=  1.0000000000D+00
 P 1 1.00
     Exponent=  4.1331336414D+01 Coefficients=  1.0000000000D+00
 P 1 1.00
     Exponent=  1.6532534566D+01 Coefficients=  1.0000000000D+00
 P 1 1.00
     Exponent=  6.6130138263D+00 Coefficients=  1.0000000000D+00
 P 1 1.00
     Exponent=  2.6452055305D+00 Coefficients=  1.0000000000D+00
 P 1 1.00
     Exponent=  1.0580822122D+00 Coefficients=  1.0000000000D+00
 P 1 1.00
     Exponent=  4.2323288488D-01 Coefficients=  1.0000000000D+00
 P 1 1.00
     Exponent=  1.6929315395D-01 Coefficients=  1.0000000000D+00
 P 1 1.00
     Exponent=  6.7717261581D-02 Coefficients=  1.0000000000D+00
 P 1 1.00
     Exponent=  2.7086904632D-02 Coefficients=  1.0000000000D+00
 P 1 1.00
     Exponent=  1.0834761853D-02 Coefficients=  1.0000000000D+00
 D 4 1.00
     Exponent=  5.5430250651D+02 Coefficients=  4.3700000000D-03
     Exponent=  2.0156454782D+02 Coefficients=  2.5110000000D-02
     Exponent=  7.3296199207D+01 Coefficients=  1.3316000000D-01
     Exponent=  2.6653163348D+01 Coefficients=  3.8900000000D-01
 D 1 1.00
     Exponent=  9.6920593993D+00 Coefficients=  1.0000000000D+00
 D 1 1.00
     Exponent=  3.5243852361D+00 Coefficients=  1.0000000000D+00
 D 1 1.00
     Exponent=  1.2815946313D+00 Coefficients=  1.0000000000D+00
 D 1 1.00
     Exponent=  4.6603441139D-01 Coefficients=  1.0000000000D+00
 D 1 1.00
     Exponent=  1.6946705869D-01 Coefficients=  1.0000000000D+00
 F 1 1.00
     Exponent=  1.3140000000D+00 Coefficients=  1.0000000000D+00
 F 1 1.00
     Exponent=  1.9993000000D-01 Coefficients=  1.0000000000D+00
 ****
 Centers:       1
 S 9 1.00
     Exponent=  2.1644816090D+06 Coefficients=  1.2320000000D-02
     Exponent=  1.0822408045D+06 Coefficients=  1.2970000000D-02
     Exponent=  5.4112040224D+05 Coefficients=  2.6370000000D-02
     Exponent=  2.7056020112D+05 Coefficients=  9.0400000000D-03
     Exponent=  1.3528010056D+05 Coefficients=  3.4980000000D-02
     Exponent=  6.7640050280D+04 Coefficients=  1.2220000000D-02
     Exponent=  3.3820025140D+04 Coefficients=  6.0520000000D-02
     Exponent=  1.6910012570D+04 Coefficients=  6.4930000000D-02
     Exponent=  8.4550062850D+03 Coefficients=  1.3819000000D-01
 S 1 1.00
     Exponent=  4.2275031425D+03 Coefficients=  1.0000000000D+00
 S 1 1.00
     Exponent=  2.1137515713D+03 Coefficients=  1.0000000000D+00
 S 1 1.00
     Exponent=  1.0568757856D+03 Coefficients=  1.0000000000D+00
 S 1 1.00
     Exponent=  5.2843789281D+02 Coefficients=  1.0000000000D+00
 S 1 1.00
     Exponent=  2.6421894641D+02 Coefficients=  1.0000000000D+00
 S 1 1.00
     Exponent=  1.3210947320D+02 Coefficients=  1.0000000000D+00
 S 1 1.00
     Exponent=  6.6054736602D+01 Coefficients=  1.0000000000D+00
 S 1 1.00
     Exponent=  3.3027368301D+01 Coefficients=  1.0000000000D+00
 S 1 1.00
     Exponent=  1.6513684150D+01 Coefficients=  1.0000000000D+00
 S 1 1.00
     Exponent=  8.2568420752D+00 Coefficients=  1.0000000000D+00
 S 1 1.00
     Exponent=  4.1284210376D+00 Coefficients=  1.0000000000D+00
 S 1 1.00
     Exponent=  2.0642105188D+00 Coefficients=  1.0000000000D+00
 S 1 1.00
     Exponent=  1.0321052594D+00 Coefficients=  1.0000000000D+00
 S 1 1.00
     Exponent=  5.1605262970D-01 Coefficients=  1.0000000000D+00
 S 1 1.00
     Exponent=  2.5802631485D-01 Coefficients=  1.0000000000D+00
 S 1 1.00
     Exponent=  1.2901315743D-01 Coefficients=  1.0000000000D+00
 S 1 1.00
     Exponent=  6.4506578713D-02 Coefficients=  1.0000000000D+00
 P 7 1.00
     Exponent=  3.2357915258D+04 Coefficients=  5.0200000000D-03
     Exponent=  1.4381295670D+04 Coefficients=  2.0200000000D-03
     Exponent=  6.3916869645D+03 Coefficients=  1.8070000000D-02
     Exponent=  2.8407497620D+03 Coefficients=  3.6620000000D-02
     Exponent=  1.2625554498D+03 Coefficients=  1.1172000000D-01
     Exponent=  5.6113575545D+02 Coefficients=  2.5586000000D-01
     Exponent=  2.4939366909D+02 Coefficients=  4.2608000000D-01
 P 1 1.00
     Exponent=  1.1084163071D+02 Coefficients=  1.0000000000D+00
 P 1 1.00
     Exponent=  4.9262946981D+01 Coefficients=  1.0000000000D+00
 P 1 1.00
     Exponent=  2.1894643103D+01 Coefficients=  1.0000000000D+00
 P 1 1.00
     Exponent=  9.7309524900D+00 Coefficients=  1.0000000000D+00
 P 1 1.00
     Exponent=  4.3248677733D+00 Coefficients=  1.0000000000D+00
 P 1 1.00
     Exponent=  1.9221634548D+00 Coefficients=  1.0000000000D+00
 P 1 1.00
     Exponent=  8.5429486881D-01 Coefficients=  1.0000000000D+00
 P 1 1.00
     Exponent=  3.7968660836D-01 Coefficients=  1.0000000000D+00
 P 1 1.00
     Exponent=  1.6874960372D-01 Coefficients=  1.0000000000D+00
 P 1 1.00
     Exponent=  7.4999823874D-02 Coefficients=  1.0000000000D+00
 P 1 1.00
     Exponent=  3.3333255055D-02 Coefficients=  1.0000000000D+00
 D 5 1.00
     Exponent=  1.9119003508D+03 Coefficients=  4.3300000000D-03
     Exponent=  7.6476014031D+02 Coefficients=  1.7780000000D-02
     Exponent=  3.0590405613D+02 Coefficients=  8.9710000000D-02
     Exponent=  1.2236162245D+02 Coefficients=  3.1123000000D-01
     Exponent=  4.8944648980D+01 Coefficients=  5.3206000000D-01
 D 1 1.00
     Exponent=  1.9577859592D+01 Coefficients=  1.0000000000D+00
 D 1 1.00
     Exponent=  7.8311438368D+00 Coefficients=  1.0000000000D+00
 D 1 1.00
     Exponent=  3.1324575347D+00 Coefficients=  1.0000000000D+00
 D 1 1.00
     Exponent=  1.2529830139D+00 Coefficients=  1.0000000000D+00
 D 1 1.00
     Exponent=  5.0119320556D-01 Coefficients=  1.0000000000D+00
 D 1 1.00
     Exponent=  2.0047728222D-01 Coefficients=  1.0000000000D+00
 D 1 1.00
     Exponent=  8.0190912889D-02 Coefficients=  1.0000000000D+00
 D 1 1.00
     Exponent=  3.2076365156D-02 Coefficients=  1.0000000000D+00
 F 4 1.00
     Exponent=  8.2289680979D+01 Coefficients=  6.1870000000D-02
     Exponent=  2.9923520356D+01 Coefficients=  2.4823000000D-01
     Exponent=  1.0881280130D+01 Coefficients=  4.9956000000D-01
     Exponent=  3.9568291380D+00 Coefficients=  4.0380000000D-01
 F 1 1.00
     Exponent=  1.4388469593D+00 Coefficients=  1.0000000000D+00
 F 1 1.00
     Exponent=  5.2321707610D-01 Coefficients=  1.0000000000D+00
 G 1 1.00
     Exponent=  2.6700000000D+00 Coefficients=  1.0000000000D+00
 G 1 1.00
     Exponent=  9.0960000000D-01 Coefficients=  1.0000000000D+00
 ****
 Ernie: Thresh=  0.10000D-02 Tol=  0.10000D-05 Strict=F.
 There are  1339 symmetry adapted cartesian basis functions of A   symmetry.
 There are  1242 symmetry adapted basis functions of A   symmetry.
  1242 basis functions,  1970 primitive gaussians,  1339 cartesian basis functions
   193 alpha electrons      193 beta electrons
       nuclear repulsion energy      8621.1974177692 Hartrees.
 IExCor= 1009 DFT=T Ex=PBE Corr=PBE ExCW=0 ScaHFX=  0.000000
 ScaDFX=  1.000000  1.000000  1.000000  1.000000 ScalE2=  1.000000  1.000000
 IRadAn=      0 IRanWt=     -1 IRanGd=            0 ICorTp=0 IEmpDi=  4
 NAtoms=   60 NActive=   60 NUniq=   60 SFac= 1.00D+00 NAtFMM=   60 NAOKFM=T Big=T
 Integral buffers will be    131072 words long.
 Raffenetti 2 integral format.
 Two-electron integral symmetry is turned on.
 ------------------------------------------------------------------------------
 Polarizable Continuum Model (PCM)
 =================================
 Model                : PCM (using non-symmetric T matrix).
 Atomic radii         : UFF (Universal Force Field).
 Polarization charges : Total charges.
 Charge compensation  : None.
 Solution method      : On-the-fly selection.
 Cavity type          : Scaled VdW (van der Waals Surface) (Alpha=1.100).
 Cavity algorithm     : GePol (No added spheres)
                        Default sphere list used, NSphG=   60.
                        Lebedev-Laikov grids with approx.  5.0 points / Ang**2.
                        Smoothing algorithm: Karplus/York (Gamma=1.0000).
                        Polarization charges: spherical gaussians, with
                                              point-specific exponents (IZeta= 3).
                        Self-potential: point-specific (ISelfS= 7).
                        Self-field    : sphere-specific E.n sum rule (ISelfD= 2).
 Solvent              : Dichloromethane, Eps=   8.930000 Eps(inf)=   2.028346
 ------------------------------------------------------------------------------
 GePol: Number of generator spheres                  =      60
 GePol: Total number of spheres                      =      60
 GePol: Number of exposed spheres                    =      60 (100.00%)
 GePol: Number of points                             =    4382
 GePol: Average weight of points                     =       0.13
 GePol: Minimum weight of points                     =   0.16D-09
 GePol: Maximum weight of points                     =    0.21838
 GePol: Number of points with low weight             =     295
 GePol: Fraction of low-weight points (<1% of avg)   =       6.73%
 GePol: Cavity surface area                          =    585.915 Ang**2
 GePol: Cavity volume                                =    696.182 Ang**3
 Leave Link  301 at Mon Aug 26 00:10:03 2019, MaxMem=   939524096 cpu:         1.1
 (Enter /scr/programas/g09/l302.exe)
 NPDir=0 NMtPBC=     1 NCelOv=     1 NCel=       1 NClECP=     1 NCelD=      1
         NCelK=      1 NCelE2=     1 NClLst=     1 CellRange=     0.0.
 One-electron integrals computed using PRISM.
 NBasis=  1242 RedAO= T EigKep=  2.22D-06  NBF=  1242
 NBsUse=  1242 1.00D-06 EigRej= -1.00D+00 NBFU=  1242
 Precomputing XC quadrature grid using
 IXCGrd= 4 IRadAn=           0 IRanWt=          -1 IRanGd=           0 AccXCQ= 0.00D+00.
 Defaulting to unpruned grid for atomic number  78.
 Defaulting to unpruned grid for atomic number  50.
 Generated NRdTot=       0 NPtTot=           0 NUsed=           0 NTot=          32
 NSgBfM=  1161  1161  1161  1161  1167 MxSgAt=    60 MxSgA2=    60.
 Leave Link  302 at Mon Aug 26 00:10:11 2019, MaxMem=   939524096 cpu:        33.2
 (Enter /scr/programas/g09/l308.exe)
 Leave Link  308 at Mon Aug 26 00:10:12 2019, MaxMem=   939524096 cpu:         3.0
 (Enter /scr/programas/g09/l303.exe)
 DipDrv:  MaxL=1.
 Leave Link  303 at Mon Aug 26 00:10:12 2019, MaxMem=   939524096 cpu:         1.8
 (Enter /scr/programas/g09/l401.exe)
 ExpMin= 1.08D-02 ExpMax= 2.16D+06 ExpMxC= 2.16D+06 IAcc=4 IRadAn=    199590 AccDes= 0.00D+00
 Harris functional with IExCor= 1009 and IRadAn=  199590 diagonalized for initial guess.
 HarFok:  IExCor= 1009 AccDes= 0.00D+00 IRadAn=    199590 IDoV= 1 UseB2=F ITyADJ=14
 ICtDFT=  3500011 ScaDFX=  1.000000  1.000000  1.000000  1.000000
 FoFCou: FMM=F IPFlag=           0 FMFlag=      100000 FMFlg1=        2001
         NFxFlg=           0 DoJE=T BraDBF=F KetDBF=T FulRan=T
         wScrn=  0.000000 ICntrl=     500 IOpCl=  0 I1Cent=   200000004 NGrid=           0
         NMat0=    1 NMatS0=      1 NMatT0=    0 NMatD0=    1 NMtDS0=    0 NMtDT0=    0
 Petite list used in FoFCou.
 Harris En= -28441.4807766355    
 JPrj=0 DoOrth=F DoCkMO=F.
 Leave Link  401 at Mon Aug 26 00:15:55 2019, MaxMem=   939524096 cpu:      1365.2
 (Enter /scr/programas/g09/l502.exe)
 Closed shell SCF:
 Using DIIS extrapolation, IDIIS=  1040.
 Integral symmetry usage will be decided dynamically.
 IVT=     5650777 IEndB=     5650777 NGot=   939524096 MDV=   935918580
 LenX=   935918580 LenY=   934124320
 Requested convergence on RMS density matrix=1.00D-04 within 500 cycles.
 Requested convergence on MAX density matrix=1.00D-02.
 Requested convergence on             energy=1.00D-02.
 No special actions if energy rises.
 Fock matrices will be formed incrementally for  20 cycles.

 Cycle   1  Pass 1  IDiag  1:
 FoFJK:  IHMeth= 1 ICntrl=     500 DoSepK=F KAlg= 0 I1Cent=   0 FoldK=F
 IRaf= 720000000 NMat=   1 IRICut=       1 DoRegI=T DoRafI=F ISym2E= 0.
 FoFCou: FMM=T IPFlag=           0 FMFlag=      100000 FMFlg1=        2001
         NFxFlg=           0 DoJE=T BraDBF=F KetDBF=F FulRan=T
         wScrn=  0.000000 ICntrl=     500 IOpCl=  0 I1Cent=           0 NGrid=           0
         NMat0=    1 NMatS0=      1 NMatT0=    0 NMatD0=    1 NMtDS0=    0 NMtDT0=    0
 Symmetry not used in FoFCou.
 FMM levels:  10  Number of levels for PrismC:   9
 Defaulting to unpruned grid for atomic number  78.
 Defaulting to unpruned grid for atomic number  78.
 Defaulting to unpruned grid for atomic number  78.
 Defaulting to unpruned grid for atomic number  78.
 Inv3:  Mode=1 IEnd=    57605772.
 Iteration    1 A*A^-1 deviation from unit magnitude is 1.02D-14 for   2283.
 Iteration    1 A*A^-1 deviation from orthogonality  is 6.80D-15 for   2283    101.
 Iteration    1 A^-1*A deviation from unit magnitude is 9.77D-15 for   4352.
 Iteration    1 A^-1*A deviation from orthogonality  is 2.47D-07 for   2807   2734.
 Iteration    2 A*A^-1 deviation from unit magnitude is 9.77D-15 for   1864.
 Iteration    2 A*A^-1 deviation from orthogonality  is 1.35D-14 for   2776    585.
 Iteration    2 A^-1*A deviation from unit magnitude is 2.33D-15 for   1802.
 Iteration    2 A^-1*A deviation from orthogonality  is 9.21D-16 for   1820   1786.
 E= -28421.9155691544    
 DIIS: error= 2.41D-01 at cycle   1 NSaved=   1.
 NSaved= 1 IEnMin= 1 EnMin= -28421.9155691544     IErMin= 1 ErrMin= 2.41D-01
 ErrMax= 2.41D-01  0.00D+00 EMaxC= 1.00D-01 BMatC= 3.36D+02 BMatP= 3.36D+02
 IDIUse=3 WtCom= 0.00D+00 WtEn= 1.00D+00
 Coeff-Com:  0.100D+01
 Coeff-En:   0.100D+01
 Coeff:      0.100D+01
 Gap=     0.812 Goal=   None    Shift=    0.000
 GapD=    0.812 DampG=2.000 DampE=0.125 DampFc=0.2500 IDamp=-1.
 Damping current iteration by 2.50D-01
 RMSDP=1.03D-02 MaxDP=1.26D+00              OVMax= 7.57D-01

 Cycle   2  Pass 1  IDiag  1:
 RMSU=  2.54D-03    CP:  1.04D+00
 E= -28423.6684310478     Delta-E=       -1.752861893401 Rises=F Damp=T
 DIIS: error= 1.73D-01 at cycle   2 NSaved=   2.
 NSaved= 2 IEnMin= 2 EnMin= -28423.6684310478     IErMin= 2 ErrMin= 1.73D-01
 ErrMax= 1.73D-01  0.00D+00 EMaxC= 1.00D-01 BMatC= 1.62D+02 BMatP= 3.36D+02
 IDIUse=3 WtCom= 0.00D+00 WtEn= 1.00D+00
 Coeff-Com: -0.201D+01 0.301D+01
 Coeff-En:   0.000D+00 0.100D+01
 Coeff:      0.000D+00 0.100D+01
 Gap=    -0.026 Goal=   None    Shift=    0.000
 RMSDP=2.73D-03 MaxDP=3.06D-01 DE=-1.75D+00 OVMax= 6.76D-01

 Cycle   3  Pass 1  IDiag  1:
 RMSU=  2.52D-03    CP:  9.91D-01  6.58D-01
 E= -28425.7579165811     Delta-E=       -2.089485533252 Rises=F Damp=F
 DIIS: error= 4.55D-02 at cycle   3 NSaved=   3.
 NSaved= 3 IEnMin= 3 EnMin= -28425.7579165811     IErMin= 3 ErrMin= 4.55D-02
 ErrMax= 4.55D-02  0.00D+00 EMaxC= 1.00D-01 BMatC= 9.82D+00 BMatP= 1.62D+02
 IDIUse=3 WtCom= 5.45D-01 WtEn= 4.55D-01
 EnCoef did   100 forward-backward iterations
 Coeff-Com:  0.995D+00-0.122D+01 0.123D+01
 Coeff-En:   0.198D+00 0.276D-02 0.800D+00
 Coeff:      0.632D+00-0.666D+00 0.103D+01
 Gap=     0.516 Goal=   None    Shift=    0.000
 RMSDP=1.45D-02 MaxDP=2.16D+00 DE=-2.09D+00 OVMax= 7.88D-01

 Cycle   4  Pass 1  IDiag  1:
 RMSU=  1.10D-02    CP:  1.25D+00  3.00D+00 -7.01D-01
 E= -28408.7334154832     Delta-E=       17.024501097854 Rises=F Damp=F
 DIIS: error= 6.59D-02 at cycle   4 NSaved=   4.
 NSaved= 4 IEnMin= 3 EnMin= -28425.7579165811     IErMin= 3 ErrMin= 4.55D-02
 ErrMax= 6.59D-02  0.00D+00 EMaxC= 1.00D-01 BMatC= 1.25D+01 BMatP= 9.82D+00
 IDIUse=2 WtCom= 0.00D+00 WtEn= 1.00D+00
 EnCoef did     4 forward-backward iterations
 Coeff-En:   0.179D+00 0.000D+00 0.783D+00 0.373D-01
 Coeff:      0.179D+00 0.000D+00 0.783D+00 0.373D-01
 Gap=     0.028 Goal=   None    Shift=    0.000
 RMSDP=1.44D-02 MaxDP=2.43D+00 DE= 1.70D+01 OVMax= 9.57D-01

 Cycle   5  Pass 1  IDiag  1:
 RMSU=  3.93D-03    CP:  9.35D-01  5.98D-01  1.59D-01  4.62D-02
 E= -28419.1758068816     Delta-E=      -10.442391398341 Rises=F Damp=F
 DIIS: error= 5.80D-02 at cycle   5 NSaved=   5.
 NSaved= 5 IEnMin= 3 EnMin= -28425.7579165811     IErMin= 3 ErrMin= 4.55D-02
 ErrMax= 5.80D-02  0.00D+00 EMaxC= 1.00D-01 BMatC= 1.02D+01 BMatP= 9.82D+00
 IDIUse=3 WtCom= 4.20D-01 WtEn= 5.80D-01
 EnCoef did   100 forward-backward iterations
 Coeff-Com:  0.458D+00-0.553D+00 0.743D+00 0.179D+00 0.173D+00
 Coeff-En:   0.000D+00 0.000D+00 0.773D+00 0.414D-02 0.223D+00
 Coeff:      0.193D+00-0.232D+00 0.761D+00 0.775D-01 0.202D+00
 Gap=    -0.184 Goal=   None    Shift=    0.000
 RMSDP=3.64D-03 MaxDP=6.43D-01 DE=-1.04D+01 OVMax= 6.65D-01

 Cycle   6  Pass 1  IDiag  1:
 RMSU=  1.84D-03    CP:  9.27D-01  3.71D-01  6.06D-01 -3.25D-02  3.02D-01
 E= -28426.8047241387     Delta-E=       -7.628917257120 Rises=F Damp=F
 DIIS: error= 1.04D-02 at cycle   6 NSaved=   6.
 NSaved= 6 IEnMin= 6 EnMin= -28426.8047241387     IErMin= 6 ErrMin= 1.04D-02
 ErrMax= 1.04D-02  0.00D+00 EMaxC= 1.00D-01 BMatC= 8.81D-01 BMatP= 9.82D+00
 IDIUse=3 WtCom= 8.96D-01 WtEn= 1.04D-01
 EnCoef did     6 forward-backward iterations
 Coeff-Com:  0.922D-01-0.107D+00 0.310D+00 0.529D-01 0.980D-01 0.554D+00
 Coeff-En:   0.000D+00 0.000D+00 0.773D-01 0.000D+00 0.819D-01 0.841D+00
 Coeff:      0.827D-01-0.957D-01 0.285D+00 0.474D-01 0.963D-01 0.584D+00
 Gap=     0.234 Goal=   None    Shift=    0.000
 RMSDP=2.00D-03 MaxDP=2.36D-01 DE=-7.63D+00 OVMax= 3.25D-01

 Cycle   7  Pass 1  IDiag  1:
 RMSU=  1.09D-03    CP:  9.65D-01  3.88D-01  6.64D-01  2.97D-04  2.27D-01
                    CP:  1.62D-01
 E= -28426.8945610018     Delta-E=       -0.089836863102 Rises=F Damp=F
 DIIS: error= 7.96D-03 at cycle   7 NSaved=   7.
 NSaved= 7 IEnMin= 7 EnMin= -28426.8945610018     IErMin= 7 ErrMin= 7.96D-03
 ErrMax= 7.96D-03  0.00D+00 EMaxC= 1.00D-01 BMatC= 3.42D-01 BMatP= 8.81D-01
 IDIUse=3 WtCom= 9.20D-01 WtEn= 7.96D-02
 Coeff-Com: -0.473D-01 0.670D-01 0.821D-01 0.116D-01 0.235D-01 0.395D+00
 Coeff-Com:  0.468D+00
 Coeff-En:   0.000D+00 0.000D+00 0.000D+00 0.000D+00 0.000D+00 0.455D+00
 Coeff-En:   0.545D+00
 Coeff:     -0.435D-01 0.617D-01 0.756D-01 0.107D-01 0.216D-01 0.400D+00
 Coeff:      0.474D+00
 Gap=     0.154 Goal=   None    Shift=    0.000
 RMSDP=2.00D-03 MaxDP=2.34D-01 DE=-8.98D-02 OVMax= 2.47D-01

 Cycle   8  Pass 1  IDiag  1:
 RMSU=  9.22D-04    CP:  9.20D-01  2.96D-01  6.20D-01 -2.54D-02  4.76D-01
                    CP:  7.65D-01  3.13D-01
 E= -28427.1238601549     Delta-E=       -0.229299153114 Rises=F Damp=F
 DIIS: error= 4.61D-03 at cycle   8 NSaved=   8.
 NSaved= 8 IEnMin= 8 EnMin= -28427.1238601549     IErMin= 8 ErrMin= 4.61D-03
 ErrMax= 4.61D-03  0.00D+00 EMaxC= 1.00D-01 BMatC= 1.22D-01 BMatP= 3.42D-01
 IDIUse=3 WtCom= 9.54D-01 WtEn= 4.61D-02
 EnCoef did     7 forward-backward iterations
 Coeff-Com: -0.654D-01 0.887D-01 0.141D-01 0.422D-02-0.317D-02 0.231D+00
 Coeff-Com:  0.366D+00 0.364D+00
 Coeff-En:   0.000D+00 0.000D+00 0.000D+00 0.000D+00 0.000D+00 0.742D-01
 Coeff-En:   0.283D+00 0.642D+00
 Coeff:     -0.624D-01 0.846D-01 0.135D-01 0.403D-02-0.302D-02 0.224D+00
 Coeff:      0.362D+00 0.377D+00
 Gap=     0.121 Goal=   None    Shift=    0.000
 RMSDP=8.22D-04 MaxDP=7.78D-02 DE=-2.29D-01 OVMax= 1.11D-01

 Cycle   9  Pass 1  IDiag  1:
 RMSU=  2.48D-04    CP:  9.28D-01  3.00D-01  6.61D-01 -2.39D-02  3.87D-01
                    CP:  6.28D-01  6.36D-01  4.20D-01
 E= -28427.2355038725     Delta-E=       -0.111643717661 Rises=F Damp=F
 DIIS: error= 9.13D-04 at cycle   9 NSaved=   9.
 NSaved= 9 IEnMin= 9 EnMin= -28427.2355038725     IErMin= 9 ErrMin= 9.13D-04
 ErrMax= 9.13D-04  0.00D+00 EMaxC= 1.00D-01 BMatC= 5.14D-03 BMatP= 1.22D-01
 IDIUse=3 WtCom= 9.91D-01 WtEn= 9.13D-03
 Coeff-Com: -0.311D-01 0.418D-01-0.316D-02 0.566D-03-0.145D-02 0.773D-01
 Coeff-Com:  0.112D+00 0.200D+00 0.605D+00
 Coeff-En:   0.000D+00 0.000D+00 0.000D+00 0.000D+00 0.000D+00 0.000D+00
 Coeff-En:   0.000D+00 0.190D-01 0.981D+00
 Coeff:     -0.308D-01 0.414D-01-0.313D-02 0.561D-03-0.143D-02 0.766D-01
 Coeff:      0.111D+00 0.198D+00 0.608D+00
 Gap=     0.119 Goal=   None    Shift=    0.000
 RMSDP=1.56D-04 MaxDP=1.74D-02 DE=-1.12D-01 OVMax= 2.62D-02

 Cycle  10  Pass 1  IDiag  1:
 RMSU=  9.18D-05    CP:  9.28D-01  3.12D-01  6.69D-01 -2.48D-02  3.89D-01
                    CP:  6.51D-01  5.70D-01  4.88D-01  7.60D-01
 E= -28427.2392790126     Delta-E=       -0.003775140096 Rises=F Damp=F
 DIIS: error= 4.00D-04 at cycle  10 NSaved=  10.
 NSaved=10 IEnMin=10 EnMin= -28427.2392790126     IErMin=10 ErrMin= 4.00D-04
 ErrMax= 4.00D-04  0.00D+00 EMaxC= 1.00D-01 BMatC= 1.19D-03 BMatP= 5.14D-03
 IDIUse=3 WtCom= 9.96D-01 WtEn= 4.00D-03
 Coeff-Com: -0.779D-02 0.102D-01-0.478D-02 0.804D-03 0.102D-02 0.723D-02
 Coeff-Com:  0.786D-02 0.600D-01 0.371D+00 0.554D+00
 Coeff-En:   0.000D+00 0.000D+00 0.000D+00 0.000D+00 0.000D+00 0.000D+00
 Coeff-En:   0.000D+00 0.000D+00 0.206D+00 0.794D+00
 Coeff:     -0.776D-02 0.102D-01-0.476D-02 0.801D-03 0.101D-02 0.720D-02
 Coeff:      0.782D-02 0.598D-01 0.371D+00 0.555D+00
 Gap=     0.119 Goal=   None    Shift=    0.000
 RMSDP=6.82D-05 MaxDP=1.06D-02 DE=-3.78D-03 OVMax= 7.21D-03

 Cycle  11  Pass 1  IDiag  1:
 RMSU=  2.86D-05    CP:  9.27D-01  3.06D-01  6.62D-01 -2.55D-02  3.97D-01
                    CP:  6.64D-01  5.81D-01  4.83D-01  8.31D-01  6.64D-01
 E= -28427.2403497063     Delta-E=       -0.001070693637 Rises=F Damp=F
 DIIS: error= 1.23D-04 at cycle  11 NSaved=  11.
 NSaved=11 IEnMin=11 EnMin= -28427.2403497063     IErMin=11 ErrMin= 1.23D-04
 ErrMax= 1.23D-04  0.00D+00 EMaxC= 1.00D-01 BMatC= 1.30D-04 BMatP= 1.19D-03
 IDIUse=3 WtCom= 9.99D-01 WtEn= 1.23D-03
 Coeff-Com: -0.299D-02 0.382D-02-0.365D-02 0.461D-03 0.840D-03-0.241D-02
 Coeff-Com:  0.126D-02 0.265D-01 0.164D+00 0.282D+00 0.529D+00
 Coeff-En:   0.000D+00 0.000D+00 0.000D+00 0.000D+00 0.000D+00 0.000D+00
 Coeff-En:   0.000D+00 0.000D+00 0.000D+00 0.000D+00 0.100D+01
 Coeff:     -0.299D-02 0.382D-02-0.365D-02 0.460D-03 0.839D-03-0.241D-02
 Coeff:      0.126D-02 0.265D-01 0.164D+00 0.282D+00 0.530D+00
 Gap=     0.119 Goal=   None    Shift=    0.000
 RMSDP=1.75D-05 MaxDP=2.82D-03 DE=-1.07D-03 OVMax= 2.99D-03

 Error on total polarization charges =  0.02557
 SCF Done:  E(RPBE-PBE) =  -28427.2403497     A.U. after   11 cycles
            NFock= 11  Conv=0.17D-04     -V/T= 2.0148
 KE= 2.801378133104D+04 PE=-8.456419554922D+04 EE= 1.950197645071D+04
 Leave Link  502 at Mon Aug 26 01:47:16 2019, MaxMem=   939524096 cpu:     21809.6
 (Enter /scr/programas/g09/l801.exe)
 Range of M.O.s used for correlation:     1  1242
 NBasis=  1242 NAE=   193 NBE=   193 NFC=     0 NFV=     0
 NROrb=   1242 NOA=   193 NOB=   193 NVA=  1049 NVB=  1049

 **** Warning!!: The largest alpha MO coefficient is  0.57894724D+02

 Leave Link  801 at Mon Aug 26 01:47:16 2019, MaxMem=   939524096 cpu:         0.2
 (Enter /scr/programas/g09/l1002.exe)
 Minotr:  Closed shell wavefunction.
 NEqPCM:  Using equilibrium solvation (IEInf=0, Eps=   8.9300, EpsInf=   2.0283)
          Direct CPHF calculation.
          Differentiating once with respect to magnetic field using GIAOs.
          Electric field/nuclear overlap derivatives assumed to be zero.
          Requested convergence is 1.0D-08 RMS, and 1.0D-07 maximum.
          Secondary convergence is 1.0D-12 RMS, and 1.0D-12 maximum.
          NewPWx=T KeepS1=F KeepF1=F KeepIn=T MapXYZ=F SortEE=F KeepMc=T.
          MDV=     939522370 using IRadAn=       2.
 Defaulting to unpruned grid for atomic number  78.
 Defaulting to unpruned grid for atomic number  50.
 Generate precomputed XC quadrature information.
          Solving linear equations simultaneously, MaxMat=      72.
 FoFJK:  IHMeth= 1 ICntrl=    6127 DoSepK=F KAlg= 0 I1Cent=   0 FoldK=F
 IRaf=         1 NMat=   1 IRICut=       1 DoRegI=T DoRafI=F ISym2E= 0.
 Defaulting to unpruned grid for atomic number  78.
 Defaulting to unpruned grid for atomic number  78.
 Defaulting to unpruned grid for atomic number  78.
 Defaulting to unpruned grid for atomic number  78.
          There are     3 degrees of freedom in the 1st order CPHF.  IDoFFX=0 NUNeed=     3.
      3 vectors produced by pass  0 Test12= 6.75D-12 3.33D-08 XBig12= 2.40D+02 3.55D+00.
 AX will form     3 AO Fock derivatives at one time.
 InvSVY:  IOpt=1 It=  1 EMax= 0.00D+00
 Solved reduced A of dimension     3 with     3 vectors.
 Calculating GIAO nuclear magnetic shielding tensors.
 SCF GIAO Magnetic shielding tensor (ppm):
      1  Pt   Isotropic =  2984.7100   Anisotropy =  1125.2158
   XX=  3656.9130   YX=   -53.4644   ZX=   343.8301
   XY=   -43.6537   YY=  3464.5091   ZY=   117.6419
   XZ=   411.2748   YZ=    87.5803   ZZ=  1832.7079
   Eigenvalues:  1750.5790  3468.6971  3734.8538
      2  P    Isotropic =   289.9812   Anisotropy =    41.0176
   XX=   293.2846   YX=     5.4540   ZX=    14.2317
   XY=   -15.0940   YY=   301.7809   ZY=   -18.0914
   XZ=    20.3401   YZ=   -16.8180   ZZ=   274.8780
   Eigenvalues:   260.3396   292.2777   317.3262
      3  P    Isotropic =   273.0719   Anisotropy =    55.5596
   XX=   236.1226   YX=    -5.1909   ZX=   -16.3506
   XY=    16.3213   YY=   309.4623   ZY=     5.2944
   XZ=    -6.9774   YZ=     2.1145   ZZ=   273.6309
   Eigenvalues:   232.2653   276.8389   310.1117
      4  C    Isotropic =   156.8140   Anisotropy =    33.9352
   XX=   142.9444   YX=    -3.4523   ZX=     0.7826
   XY=     2.4953   YY=   170.3423   ZY=   -14.5103
   XZ=     0.2641   YZ=   -13.9331   ZZ=   157.1552
   Eigenvalues:   142.9250   148.0795   179.4374
      5  H    Isotropic =    28.7424   Anisotropy =     8.1570
   XX=    27.1375   YX=     4.1760   ZX=     3.3742
   XY=     4.8596   YY=    31.2205   ZY=    -1.3373
   XZ=     3.6736   YZ=    -2.1226   ZZ=    27.8691
   Eigenvalues:    21.7360    30.3107    34.1804
      6  H    Isotropic =    29.3163   Anisotropy =     5.4514
   XX=    28.8489   YX=    -1.2202   ZX=    -3.6967
   XY=    -2.5988   YY=    29.7232   ZY=    -2.5817
   XZ=    -3.7651   YZ=    -2.1901   ZZ=    29.3767
   Eigenvalues:    23.8186    31.1797    32.9505
      7  C    Isotropic =   172.3301   Anisotropy =    21.3187
   XX=   165.0162   YX=    -2.6384   ZX=    -1.5358
   XY=    -2.3281   YY=   184.2101   ZY=    -6.3903
   XZ=     0.1729   YZ=    -6.1568   ZZ=   167.7638
   Eigenvalues:   163.7303   166.7173   186.5425
      8  H    Isotropic =    30.3662   Anisotropy =     8.5283
   XX=    28.5220   YX=     2.5779   ZX=     2.6093
   XY=     3.2795   YY=    34.9013   ZY=    -0.9648
   XZ=     2.3260   YZ=    -1.5398   ZZ=    27.6754
   Eigenvalues:    24.7675    30.2795    36.0518
      9  H    Isotropic =    30.1011   Anisotropy =    13.1387
   XX=    24.9155   YX=     0.1735   ZX=    -0.6806
   XY=     0.1126   YY=    31.1142   ZY=    -6.6559
   XZ=    -0.7264   YZ=    -5.2033   ZZ=    34.2737
   Eigenvalues:    24.8283    26.6148    38.8602
     10  H    Isotropic =    30.1384   Anisotropy =     8.2644
   XX=    30.9842   YX=    -3.1036   ZX=    -1.1813
   XY=    -4.5091   YY=    32.3577   ZY=    -1.8482
   XZ=    -0.9807   YZ=    -2.3900   ZZ=    27.0734
   Eigenvalues:    25.1704    29.5969    35.6480
     11  C    Isotropic =   147.8597   Anisotropy =    30.3315
   XX=   156.4660   YX=    -1.7624   ZX=    -5.5681
   XY=    -4.4632   YY=   159.7408   ZY=    12.8590
   XZ=    -7.1729   YZ=    17.1520   ZZ=   127.3723
   Eigenvalues:   120.8302   154.6682   168.0807
     12  H    Isotropic =    28.6816   Anisotropy =     8.2443
   XX=    26.9581   YX=     1.9859   ZX=    -4.4815
   XY=     1.6789   YY=    33.6281   ZY=     1.3227
   XZ=    -4.5882   YZ=     2.3890   ZZ=    25.4586
   Eigenvalues:    21.0731    30.7939    34.1778
     13  C    Isotropic =   165.0075   Anisotropy =    23.1559
   XX=   174.0898   YX=     7.2291   ZX=    -7.1469
   XY=     6.1148   YY=   154.0165   ZY=     2.7911
   XZ=   -10.3036   YZ=     4.5600   ZZ=   166.9162
   Eigenvalues:   149.6149   164.9629   180.4448
     14  H    Isotropic =    29.2169   Anisotropy =     9.2242
   XX=    31.0908   YX=    -1.7336   ZX=    -0.7846
   XY=    -1.8416   YY=    32.1043   ZY=     4.1594
   XZ=    -1.2532   YZ=     5.3474   ZZ=    24.4555
   Eigenvalues:    22.1765    30.1078    35.3664
     15  H    Isotropic =    29.9023   Anisotropy =     5.7053
   XX=    27.8124   YX=     1.2707   ZX=     1.2969
   XY=    -1.9368   YY=    29.1014   ZY=     0.8496
   XZ=     3.3412   YZ=    -0.6339   ZZ=    32.7932
   Eigenvalues:    26.8457    29.1554    33.7058
     16  C    Isotropic =   176.1963   Anisotropy =    18.4231
   XX=   186.3374   YX=     4.2860   ZX=    -5.7971
   XY=     1.8247   YY=   174.4136   ZY=    -2.0565
   XZ=    -4.5197   YZ=    -1.0738   ZZ=   167.8377
   Eigenvalues:   166.4221   173.6884   188.4783
     17  H    Isotropic =    30.9095   Anisotropy =    12.1135
   XX=    33.6201   YX=     5.0057   ZX=     3.4512
   XY=     4.3412   YY=    32.2140   ZY=     3.2531
   XZ=     2.2020   YZ=     2.5230   ZZ=    26.8945
   Eigenvalues:    25.5135    28.2299    38.9852
     18  H    Isotropic =    32.1226   Anisotropy =    15.1309
   XX=    32.9459   YX=    -3.6497   ZX=    -1.4565
   XY=    -4.0156   YY=    40.5836   ZY=    -1.2673
   XZ=    -1.9033   YZ=     1.6359   ZZ=    22.8382
   Eigenvalues:    22.5552    31.6027    42.2098
     19  H    Isotropic =    30.9973   Anisotropy =     8.2295
   XX=    31.2489   YX=     2.8780   ZX=    -1.0009
   XY=     1.4968   YY=    31.1243   ZY=    -5.2289
   XZ=    -0.4425   YZ=    -4.2929   ZZ=    30.6186
   Eigenvalues:    25.9071    30.6011    36.4836
     20  C    Isotropic =   156.2098   Anisotropy =    20.4880
   XX=   152.4147   YX=    11.1568   ZX=    -3.6026
   XY=    10.4985   YY=   152.5027   ZY=    -3.0376
   XZ=    -0.2425   YZ=   -10.4898   ZZ=   163.7119
   Eigenvalues:   141.0753   157.6856   169.8684
     21  H    Isotropic =    29.3469   Anisotropy =     9.3473
   XX=    26.7693   YX=     0.7809   ZX=    -1.2443
   XY=     0.3417   YY=    35.2753   ZY=    -1.2779
   XZ=    -1.3011   YZ=    -1.7305   ZZ=    25.9961
   Eigenvalues:    24.9733    27.4889    35.5784
     22  H    Isotropic =    29.2138   Anisotropy =     9.3312
   XX=    32.9429   YX=    -0.4812   ZX=     3.4576
   XY=     0.6465   YY=    27.0026   ZY=    -2.6808
   XZ=     4.7151   YZ=    -3.5034   ZZ=    27.6959
   Eigenvalues:    23.3119    28.8949    35.4346
     23  C    Isotropic =   172.3561   Anisotropy =    19.3286
   XX=   160.3793   YX=     0.0628   ZX=    -2.1060
   XY=     1.4180   YY=   172.0347   ZY=     0.6274
   XZ=    -5.4531   YZ=     0.4261   ZZ=   184.6542
   Eigenvalues:   159.7508   172.0756   185.2418
     24  H    Isotropic =    30.5750   Anisotropy =     8.6519
   XX=    31.1450   YX=    -1.1887   ZX=     2.4123
   XY=    -0.3440   YY=    26.5977   ZY=    -2.5213
   XZ=     3.0267   YZ=    -2.6880   ZZ=    33.9823
   Eigenvalues:    25.7696    29.6124    36.3429
     25  H    Isotropic =    30.2323   Anisotropy =     5.4327
   XX=    25.7438   YX=    -1.8013   ZX=    -1.6029
   XY=    -1.5988   YY=    32.8625   ZY=    -1.9745
   XZ=    -1.9399   YZ=    -0.6385   ZZ=    32.0906
   Eigenvalues:    24.7943    32.0485    33.8541
     26  H    Isotropic =    30.1839   Anisotropy =    13.3653
   XX=    28.3596   YX=     2.6164   ZX=    -3.9862
   XY=     2.9196   YY=    28.3411   ZY=    -4.2269
   XZ=    -5.0993   YZ=    -4.9781   ZZ=    33.8509
   Eigenvalues:    25.5785    25.8791    39.0941
     27  C    Isotropic =   163.8096   Anisotropy =    26.2821
   XX=   158.2574   YX=    -2.8140   ZX=     2.1071
   XY=    -8.1476   YY=   179.9009   ZY=    -3.6245
   XZ=     3.0170   YZ=     1.0677   ZZ=   153.2703
   Eigenvalues:   152.1499   157.9478   181.3310
     28  H    Isotropic =    30.1579   Anisotropy =     8.0526
   XX=    32.6416   YX=     0.5457   ZX=    -2.6478
   XY=     2.1486   YY=    33.4920   ZY=    -0.7281
   XZ=    -3.4142   YZ=    -3.1473   ZZ=    24.3401
   Eigenvalues:    23.1485    31.7989    35.5263
     29  H    Isotropic =    30.3050   Anisotropy =     9.6474
   XX=    27.9107   YX=    -0.2270   ZX=     4.5710
   XY=     2.7149   YY=    35.9051   ZY=     1.7767
   XZ=     4.6543   YZ=     1.2783   ZZ=    27.0993
   Eigenvalues:    22.8680    31.3105    36.7366
     30  C    Isotropic =   176.7641   Anisotropy =    18.2594
   XX=   170.9681   YX=    -1.7233   ZX=    -0.1915
   XY=    -0.9739   YY=   188.3579   ZY=    -2.8150
   XZ=     0.1979   YZ=    -3.0463   ZZ=   170.9665
   Eigenvalues:   170.3899   170.9654   188.9371
     31  H    Isotropic =    30.4394   Anisotropy =    12.6941
   XX=    34.1071   YX=    -4.5500   ZX=     1.7087
   XY=    -5.6315   YY=    32.6165   ZY=    -1.5980
   XZ=     1.7736   YZ=    -1.6465   ZZ=    24.5945
   Eigenvalues:    24.1973    28.2187    38.9021
     32  H    Isotropic =    30.6663   Anisotropy =    10.0022
   XX=    28.4966   YX=    -1.5200   ZX=    -2.1901
   XY=    -0.4518   YY=    33.2959   ZY=    -5.5323
   XZ=    -2.1695   YZ=    -5.1306   ZZ=    30.2064
   Eigenvalues:    24.7405    29.9240    37.3344
     33  H    Isotropic =    30.6352   Anisotropy =     9.7864
   XX=    27.1542   YX=    -2.3697   ZX=     2.1897
   XY=    -1.1214   YY=    35.4897   ZY=     4.0461
   XZ=     2.0300   YZ=     3.0697   ZZ=    29.2616
   Eigenvalues:    24.7240    30.0221    37.1594
     34  C    Isotropic =   157.7285   Anisotropy =    22.6614
   XX=   153.6061   YX=     5.8041   ZX=    -6.7069
   XY=     9.3679   YY=   152.1792   ZY=     7.6891
   XZ=    -9.0287   YZ=    11.0334   ZZ=   167.4004
   Eigenvalues:   139.8514   160.4981   172.8361
     35  H    Isotropic =    29.4125   Anisotropy =     9.7501
   XX=    24.8506   YX=    -1.1097   ZX=     0.4872
   XY=    -1.3782   YY=    35.1369   ZY=     2.0476
   XZ=     0.3487   YZ=     2.4562   ZZ=    28.2500
   Eigenvalues:    24.5591    27.7658    35.9125
     36  H    Isotropic =    28.7412   Anisotropy =    10.4720
   XX=    35.6955   YX=    -1.1650   ZX=     1.1062
   XY=     0.3276   YY=    24.8313   ZY=     3.1934
   XZ=    -0.2351   YZ=     2.9730   ZZ=    25.6967
   Eigenvalues:    22.1240    28.3770    35.7225
     37  C    Isotropic =   171.3864   Anisotropy =    18.8366
   XX=   161.3178   YX=     2.2934   ZX=   -10.6766
   XY=     2.6668   YY=   173.7431   ZY=    -2.5018
   XZ=    -7.7211   YZ=    -2.1093   ZZ=   179.0983
   Eigenvalues:   157.2963   172.9188   183.9442
     38  H    Isotropic =    30.0943   Anisotropy =    13.0269
   XX=    25.9793   YX=     0.2467   ZX=    -1.0685
   XY=     0.6915   YY=    26.7787   ZY=     3.6597
   XZ=     0.0275   YZ=     4.0658   ZZ=    37.5248
   Eigenvalues:    25.1082    26.3958    38.7789
     39  H    Isotropic =    30.1985   Anisotropy =     6.2231
   XX=    25.8484   YX=    -1.1898   ZX=    -2.4480
   XY=    -1.8900   YY=    32.8249   ZY=     1.7152
   XZ=    -2.4980   YZ=     0.3011   ZZ=    31.9220
   Eigenvalues:    24.8089    31.4392    34.3472
     40  H    Isotropic =    30.3666   Anisotropy =     9.0109
   XX=    34.8057   YX=    -0.7047   ZX=    -2.4794
   XY=     0.0065   YY=    26.1588   ZY=     1.8864
   XZ=    -3.5451   YZ=     1.0556   ZZ=    30.1354
   Eigenvalues:    25.6233    29.1026    36.3739
     41  Sn   Isotropic =  2144.2605   Anisotropy =   828.5055
   XX=  2669.1488   YX=     1.5467   ZX=   166.8343
   XY=    12.8524   YY=  1970.7803   ZY=     6.5231
   XZ=   147.5480   YZ=    12.4656   ZZ=  1792.8524
   Eigenvalues:  1765.1877  1970.9964  2696.5975
     42  Cl   Isotropic =   754.3894   Anisotropy =   317.3483
   XX=   785.3773   YX=   -34.5138   ZX=  -171.1874
   XY=   -15.8439   YY=   699.6173   ZY=    17.1191
   XZ=  -192.0370   YZ=     5.6638   ZZ=   778.1736
   Eigenvalues:   599.2132   698.0000   965.9549
     43  Cl   Isotropic =   752.5234   Anisotropy =   308.7982
   XX=   681.4572   YX=  -123.6877   ZX=   105.0932
   XY=   -98.8490   YY=   776.9133   ZY=   -78.6862
   XZ=   130.0873   YZ=   -71.3049   ZZ=   799.1997
   Eigenvalues:   586.6703   712.5111   958.3889
     44  Cl   Isotropic =   752.2844   Anisotropy =   292.3672
   XX=   704.0419   YX=   142.2510   ZX=    53.5399
   XY=   120.3417   YY=   832.3055   ZY=    66.9283
   XZ=    51.3636   YZ=    71.1082   ZZ=   720.5058
   Eigenvalues:   621.2000   688.4573   947.1958
     45  C    Isotropic =   170.6877   Anisotropy =    21.1571
   XX=   163.9000   YX=    -6.5786   ZX=    -5.6511
   XY=    -4.0980   YY=   180.9401   ZY=     5.1271
   XZ=    -6.1832   YZ=     4.4267   ZZ=   167.2229
   Eigenvalues:   159.3092   167.9613   184.7924
     46  H    Isotropic =    30.0141   Anisotropy =    12.1090
   XX=    32.7475   YX=    -2.9747   ZX=    -3.5794
   XY=    -4.3152   YY=    30.5319   ZY=     3.7924
   XZ=    -4.5418   YZ=     3.5827   ZZ=    26.7627
   Eigenvalues:    24.0668    27.8887    38.0867
     47  H    Isotropic =    30.2253   Anisotropy =     9.1710
   XX=    28.8461   YX=    -1.1586   ZX=     1.1087
   XY=    -0.2454   YY=    29.5837   ZY=     5.3090
   XZ=     1.6745   YZ=     5.0815   ZZ=    32.2462
   Eigenvalues:    25.0273    29.3093    36.3393
     48  H    Isotropic =    30.3392   Anisotropy =     8.6064
   XX=    26.4395   YX=    -1.2437   ZX=    -1.9159
   XY=    -0.9575   YY=    35.7783   ZY=    -1.9598
   XZ=    -2.2563   YZ=    -0.6889   ZZ=    28.7998
   Eigenvalues:    24.9789    29.9619    36.0768
     49  H    Isotropic =    28.5622   Anisotropy =     9.4429
   XX=    29.8537   YX=     0.9084   ZX=     3.3794
   XY=     1.4483   YY=    30.7768   ZY=     4.7492
   XZ=     3.1356   YZ=     4.5259   ZZ=    25.0561
   Eigenvalues:    21.7791    29.0501    34.8575
     50  C    Isotropic =     2.4309   Anisotropy =   184.0424
   XX=   -47.0151   YX=    -6.0629   ZX=    23.1269
   XY=    -8.5508   YY=   123.9282   ZY=   -12.0299
   XZ=     4.8457   YZ=   -12.9991   ZZ=   -69.6204
   Eigenvalues:   -76.6375   -41.1957   125.1258
     51  C    Isotropic =    38.0885   Anisotropy =   126.2673
   XX=    43.2177   YX=    -2.7597   ZX=   -13.8699
   XY=     1.5716   YY=   121.3229   ZY=   -14.0401
   XZ=   -34.6433   YZ=   -11.2311   ZZ=   -50.2750
   Eigenvalues:   -57.0582    49.0571   122.2667
     52  C    Isotropic =    54.8333   Anisotropy =   165.7455
   XX=     8.8107   YX=    -2.8023   ZX=    35.8881
   XY=    -6.4814   YY=   164.4439   ZY=    -7.5386
   XZ=    54.7009   YZ=   -11.7309   ZZ=    -8.7548
   Eigenvalues:   -46.2059    45.3755   165.3303
     53  C    Isotropic =    42.7892   Anisotropy =   100.2621
   XX=     7.1157   YX=     0.2735   ZX=    56.3917
   XY=    -0.0617   YY=   109.0165   ZY=    -6.5956
   XZ=    46.0507   YZ=    -6.7893   ZZ=    12.2353
   Eigenvalues:   -41.7557    60.4926   109.6305
     54  H    Isotropic =    23.7624   Anisotropy =    17.4508
   XX=    34.1612   YX=     1.0516   ZX=    -4.7762
   XY=     0.4029   YY=    19.1584   ZY=     0.6187
   XZ=    -4.4205   YZ=     0.3826   ZZ=    17.9676
   Eigenvalues:    16.5779    19.3130    35.3962
     55  C    Isotropic =    54.5930   Anisotropy =   173.9927
   XX=    36.0145   YX=    -8.4150   ZX=   -33.3297
   XY=    -6.4393   YY=   169.2409   ZY=   -14.0942
   XZ=   -17.6669   YZ=   -16.5948   ZZ=   -41.4765
   Eigenvalues:   -50.4040    43.5948   170.5881
     56  H    Isotropic =    23.8772   Anisotropy =    13.0982
   XX=    25.1713   YX=     1.2568   ZX=     7.0692
   XY=     0.6374   YY=    20.0988   ZY=     0.6611
   XZ=     6.3823   YZ=     0.4954   ZZ=    26.3614
   Eigenvalues:    18.9271    20.0952    32.6093
     57  C    Isotropic =    46.2791   Anisotropy =   113.0387
   XX=   -27.6544   YX=    -8.1561   ZX=   -17.4645
   XY=    -8.7229   YY=   120.9280   ZY=    -3.6585
   XZ=   -20.3520   YZ=    -6.7689   ZZ=    45.5636
   Eigenvalues:   -32.8281    50.0271   121.6382
     58  H    Isotropic =    24.4617   Anisotropy =     4.4341
   XX=    27.3275   YX=     0.0717   ZX=     0.3121
   XY=     0.3318   YY=    22.1870   ZY=     0.1260
   XZ=     0.7623   YZ=     0.0505   ZZ=    23.8706
   Eigenvalues:    22.1763    23.7910    27.4178
     59  H    Isotropic =    24.7830   Anisotropy =     5.5726
   XX=    24.3120   YX=    -0.1813   ZX=    -0.5232
   XY=     0.0989   YY=    21.5848   ZY=     0.4738
   XZ=     0.2610   YZ=     0.5969   ZZ=    28.4523
   Eigenvalues:    21.5430    24.3080    28.4981
     60  Br   Isotropic =  1849.5847   Anisotropy =  1538.2214
   XX=  2115.1617   YX=   -21.1496   ZX=  -730.6731
   XY=   -24.5963   YY=  1255.5986   ZY=    35.7967
   XZ=  -722.3414   YZ=    47.5330   ZZ=  2177.9938
   Eigenvalues:  1253.3865  1420.3020  2875.0656
 End of Minotr F.D. properties file   721 does not exist.
 End of Minotr F.D. properties file   722 does not exist.
 End of Minotr F.D. properties file   788 does not exist.
 Leave Link 1002 at Mon Aug 26 04:46:44 2019, MaxMem=   939524096 cpu:     42786.7
 (Enter /scr/programas/g09/l601.exe)
 Copying SCF densities to generalized density rwf, IOpCl= 0 IROHF=0.

 **********************************************************************

            Population analysis using the SCF density.

 **********************************************************************

 Orbital symmetries:
       Occupied  (A) (A) (A) (A) (A) (A) (A) (A) (A) (A) (A) (A)
                 (A) (A) (A) (A) (A) (A) (A) (A) (A) (A) (A) (A)
                 (A) (A) (A) (A) (A) (A) (A) (A) (A) (A) (A) (A)
                 (A) (A) (A) (A) (A) (A) (A) (A) (A) (A) (A) (A)
                 (A) (A) (A) (A) (A) (A) (A) (A) (A) (A) (A) (A)
                 (A) (A) (A) (A) (A) (A) (A) (A) (A) (A) (A) (A)
                 (A) (A) (A) (A) (A) (A) (A) (A) (A) (A) (A) (A)
                 (A) (A) (A) (A) (A) (A) (A) (A) (A) (A) (A) (A)
                 (A) (A) (A) (A) (A) (A) (A) (A) (A) (A) (A) (A)
                 (A) (A) (A) (A) (A) (A) (A) (A) (A) (A) (A) (A)
                 (A) (A) (A) (A) (A) (A) (A) (A) (A) (A) (A) (A)
                 (A) (A) (A) (A) (A) (A) (A) (A) (A) (A) (A) (A)
                 (A) (A) (A) (A) (A) (A) (A) (A) (A) (A) (A) (A)
                 (A) (A) (A) (A) (A) (A) (A) (A) (A) (A) (A) (A)
                 (A) (A) (A) (A) (A) (A) (A) (A) (A) (A) (A) (A)
                 (A) (A) (A) (A) (A) (A) (A) (A) (A) (A) (A) (A)
                 (A)
       Virtual   (A) (A) (A) (A) (A) (A) (A) (A) (A) (A) (A) (A)
                 (A) (A) (A) (A) (A) (A) (A) (A) (A) (A) (A) (A)
                 (A) (A) (A) (A) (A) (A) (A) (A) (A) (A) (A) (A)
                 (A) (A) (A) (A) (A) (A) (A) (A) (A) (A) (A) (A)
                 (A) (A) (A) (A) (A) (A) (A) (A) (A) (A) (A) (A)
                 (A) (A) (A) (A) (A) (A) (A) (A) (A) (A) (A) (A)
                 (A) (A) (A) (A) (A) (A) (A) (A) (A) (A) (A) (A)
                 (A) (A) (A) (A) (A) (A) (A) (A) (A) (A) (A) (A)
                 (A) (A) (A) (A) (A) (A) (A) (A) (A) (A) (A) (A)
                 (A) (A) (A) (A) (A) (A) (A) (A) (A) (A) (A) (A)
                 (A) (A) (A) (A) (A) (A) (A) (A) (A) (A) (A) (A)
                 (A) (A) (A) (A) (A) (A) (A) (A) (A) (A) (A) (A)
                 (A) (A) (A) (A) (A) (A) (A) (A) (A) (A) (A) (A)
                 (A) (A) (A) (A) (A) (A) (A) (A) (A) (A) (A) (A)
                 (A) (A) (A) (A) (A) (A) (A) (A) (A) (A) (A) (A)
                 (A) (A) (A) (A) (A) (A) (A) (A) (A) (A) (A) (A)
                 (A) (A) (A) (A) (A) (A) (A) (A) (A) (A) (A) (A)
                 (A) (A) (A) (A) (A) (A) (A) (A) (A) (A) (A) (A)
                 (A) (A) (A) (A) (A) (A) (A) (A) (A) (A) (A) (A)
                 (A) (A) (A) (A) (A) (A) (A) (A) (A) (A) (A) (A)
                 (A) (A) (A) (A) (A) (A) (A) (A) (A) (A) (A) (A)
                 (A) (A) (A) (A) (A) (A) (A) (A) (A) (A) (A) (A)
                 (A) (A) (A) (A) (A) (A) (A) (A) (A) (A) (A) (A)
                 (A) (A) (A) (A) (A) (A) (A) (A) (A) (A) (A) (A)
                 (A) (A) (A) (A) (A) (A) (A) (A) (A) (A) (A) (A)
                 (A) (A) (A) (A) (A) (A) (A) (A) (A) (A) (A) (A)
                 (A) (A) (A) (A) (A) (A) (A) (A) (A) (A) (A) (A)
                 (A) (A) (A) (A) (A) (A) (A) (A) (A) (A) (A) (A)
                 (A) (A) (A) (A) (A) (A) (A) (A) (A) (A) (A) (A)
                 (A) (A) (A) (A) (A) (A) (A) (A) (A) (A) (A) (A)
                 (A) (A) (A) (A) (A) (A) (A) (A) (A) (A) (A) (A)
                 (A) (A) (A) (A) (A) (A) (A) (A) (A) (A) (A) (A)
                 (A) (A) (A) (A) (A) (A) (A) (A) (A) (A) (A) (A)
                 (A) (A) (A) (A) (A) (A) (A) (A) (A) (A) (A) (A)
                 (A) (A) (A) (A) (A) (A) (A) (A) (A) (A) (A) (A)
                 (A) (A) (A) (A) (A) (A) (A) (A) (A) (A) (A) (A)
                 (A) (A) (A) (A) (A) (A) (A) (A) (A) (A) (A) (A)
                 (A) (A) (A) (A) (A) (A) (A) (A) (A) (A) (A) (A)
                 (A) (A) (A) (A) (A) (A) (A) (A) (A) (A) (A) (A)
                 (A) (A) (A) (A) (A) (A) (A) (A) (A) (A) (A) (A)
                 (A) (A) (A) (A) (A) (A) (A) (A) (A) (A) (A) (A)
                 (A) (A) (A) (A) (A) (A) (A) (A) (A) (A) (A) (A)
                 (A) (A) (A) (A) (A) (A) (A) (A) (A) (A) (A) (A)
                 (A) (A) (A) (A) (A) (A) (A) (A) (A) (A) (A) (A)
                 (A) (A) (A) (A) (A) (A) (A) (A) (A) (A) (A) (A)
                 (A) (A) (A) (A) (A) (A) (A) (A) (A) (A) (A) (A)
                 (A) (A) (A) (A) (A) (A) (A) (A) (A) (A) (A) (A)
                 (A) (A) (A) (A) (A) (A) (A) (A) (A) (A) (A) (A)
                 (A) (A) (A) (A) (A) (A) (A) (A) (A) (A) (A) (A)
                 (A) (A) (A) (A) (A) (A) (A) (A) (A) (A) (A) (A)
                 (A) (A) (A) (A) (A) (A) (A) (A) (A) (A) (A) (A)
                 (A) (A) (A) (A) (A) (A) (A) (A) (A) (A) (A) (A)
                 (A) (A) (A) (A) (A) (A) (A) (A) (A) (A) (A) (A)
                 (A) (A) (A) (A) (A) (A) (A) (A) (A) (A) (A) (A)
                 (A) (A) (A) (A) (A) (A) (A) (A) (A) (A) (A) (A)
                 (A) (A) (A) (A) (A) (A) (A) (A) (A) (A) (A) (A)
                 (A) (A) (A) (A) (A) (A) (A) (A) (A) (A) (A) (A)
                 (A) (A) (A) (A) (A) (A) (A) (A) (A) (A) (A) (A)
                 (A) (A) (A) (A) (A) (A) (A) (A) (A) (A) (A) (A)
                 (A) (A) (A) (A) (A) (A) (A) (A) (A) (A) (A) (A)
                 (A) (A) (A) (A) (A) (A) (A) (A) (A) (A) (A) (A)
                 (A) (A) (A) (A) (A) (A) (A) (A) (A) (A) (A) (A)
                 (A) (A) (A) (A) (A) (A) (A) (A) (A) (A) (A) (A)
                 (A) (A) (A) (A) (A) (A) (A) (A) (A) (A) (A) (A)
                 (A) (A) (A) (A) (A) (A) (A) (A) (A) (A) (A) (A)
                 (A) (A) (A) (A) (A) (A) (A) (A) (A) (A) (A) (A)
                 (A) (A) (A) (A) (A) (A) (A) (A) (A) (A) (A) (A)
                 (A) (A) (A) (A) (A) (A) (A) (A) (A) (A) (A) (A)
                 (A) (A) (A) (A) (A) (A) (A) (A) (A) (A) (A) (A)
                 (A) (A) (A) (A) (A) (A) (A) (A) (A) (A) (A) (A)
                 (A) (A) (A) (A) (A) (A) (A) (A) (A) (A) (A) (A)
                 (A) (A) (A) (A) (A) (A) (A) (A) (A) (A) (A) (A)
                 (A) (A) (A) (A) (A) (A) (A) (A) (A) (A) (A) (A)
                 (A) (A) (A) (A) (A) (A) (A) (A) (A) (A) (A) (A)
                 (A) (A) (A) (A) (A) (A) (A) (A) (A) (A) (A) (A)
                 (A) (A) (A) (A) (A) (A) (A) (A) (A) (A) (A) (A)
                 (A) (A) (A) (A) (A) (A) (A) (A) (A) (A) (A) (A)
                 (A) (A) (A) (A) (A) (A) (A) (A) (A) (A) (A) (A)
                 (A) (A) (A) (A) (A) (A) (A) (A) (A) (A) (A) (A)
                 (A) (A) (A) (A) (A) (A) (A) (A) (A) (A) (A) (A)
                 (A) (A) (A) (A) (A) (A) (A) (A) (A) (A) (A) (A)
                 (A) (A) (A) (A) (A) (A) (A) (A) (A) (A) (A) (A)
                 (A) (A) (A) (A) (A) (A) (A) (A) (A) (A) (A) (A)
                 (A) (A) (A) (A) (A) (A) (A) (A) (A) (A) (A) (A)
                 (A) (A) (A) (A) (A) (A) (A) (A) (A) (A) (A) (A)
                 (A) (A) (A) (A) (A) (A) (A) (A) (A) (A) (A) (A)
                 (A) (A) (A) (A) (A) (A) (A) (A) (A) (A) (A) (A)
                 (A) (A) (A) (A) (A)
 The electronic state is 1-A.
 Alpha  occ. eigenvalues -- ********************-478.62776-427.53966-414.87013
 Alpha  occ. eigenvalues -- -414.86976-414.86697-149.65145-141.92957-141.92953
 Alpha  occ. eigenvalues -- -141.92881-100.55547-100.55492-100.55312 -99.91996
 Alpha  occ. eigenvalues --  -92.07855 -92.07737 -92.07377 -79.03739 -79.03618
 Alpha  occ. eigenvalues --  -79.03417 -79.03358 -79.03311 -76.29968 -76.29847
 Alpha  occ. eigenvalues --  -61.54592 -55.73146 -55.72753 -55.72734 -28.81525
 Alpha  occ. eigenvalues --  -25.16160 -25.16152 -25.15923 -20.83464 -17.71054
 Alpha  occ. eigenvalues --  -17.71054 -17.70899 -17.70896 -17.70850 -17.40306
 Alpha  occ. eigenvalues --  -17.40086 -17.39319 -11.58690 -11.58265 -11.57851
 Alpha  occ. eigenvalues --  -11.57741 -11.57649  -9.95408  -9.91075  -9.90842
 Alpha  occ. eigenvalues --   -9.90815  -9.90771  -9.90708  -9.90679  -9.90643
 Alpha  occ. eigenvalues --   -9.90616  -9.90469  -9.90300  -9.89880  -9.89121
 Alpha  occ. eigenvalues --   -9.89098  -9.89069  -9.89055  -9.89050  -9.88665
 Alpha  occ. eigenvalues --   -9.13410  -9.13346  -9.13170  -8.37496  -6.97169
 Alpha  occ. eigenvalues --   -6.97100  -6.96930  -6.96614  -6.96603  -6.96557
 Alpha  occ. eigenvalues --   -6.96540  -6.96378  -6.96361  -6.32978  -6.32879
 Alpha  occ. eigenvalues --   -6.28576  -6.27432  -6.27384  -4.55510  -4.55503
 Alpha  occ. eigenvalues --   -4.55406  -4.55393  -4.55236  -4.55149  -4.50228
 Alpha  occ. eigenvalues --   -3.23678  -3.23651  -3.23246  -3.13551  -3.13518
 Alpha  occ. eigenvalues --   -3.13065  -3.12764  -3.12642  -3.12559  -3.12519
 Alpha  occ. eigenvalues --   -2.86423  -2.49461  -2.49173  -2.49142  -2.48294
 Alpha  occ. eigenvalues --   -2.48293  -1.81445  -1.81265  -1.78730  -1.02712
 Alpha  occ. eigenvalues --   -1.02706  -1.02338  -1.02297  -1.02202  -0.79768
 Alpha  occ. eigenvalues --   -0.73674  -0.73458  -0.73380  -0.72085  -0.70571
 Alpha  occ. eigenvalues --   -0.70436  -0.69627  -0.69424  -0.69193  -0.69146
 Alpha  occ. eigenvalues --   -0.68267  -0.65888  -0.61415  -0.61073  -0.57237
[...]
 Alpha virt. eigenvalues --    0.45533   0.45667   0.46066   0.46212   0.46397
 Alpha virt. eigenvalues --    0.46626   0.46774   0.47095   0.47287   0.47372
 Alpha virt. eigenvalues --    0.47692   0.47794   0.48245   0.48501   0.48746
 Alpha virt. eigenvalues --    0.48952   0.49267   0.49514   0.49667   0.49990
 Alpha virt. eigenvalues --    0.50161   0.50403   0.50682   0.51106   0.51187
 Alpha virt. eigenvalues --    0.51225   0.51487   0.51862   0.51938   0.52061
 Alpha virt. eigenvalues --    0.52217   0.52326   0.52748   0.53094   0.53155
 Alpha virt. eigenvalues --    0.53297   0.53822   0.53912   0.54046   0.54272
 Alpha virt. eigenvalues --    0.54605   0.54980   0.55550   0.55652   0.55740
 Alpha virt. eigenvalues --    0.56011   0.56335   0.56505   0.56531   0.56938
 Alpha virt. eigenvalues --    0.57197   0.57386   0.57594   0.57766   0.58221
 Alpha virt. eigenvalues --    0.58332   0.58729   0.58772   0.58995   0.59288
 Alpha virt. eigenvalues --    0.59567   0.59716   0.60062   0.60184   0.60720
 Alpha virt. eigenvalues --    0.60949   0.61345   0.61479   0.61661   0.61989
 Alpha virt. eigenvalues --    0.62135   0.62733   0.62739   0.62825   0.62989
 Alpha virt. eigenvalues --    0.63316   0.63572   0.63704   0.64182   0.64317
 Alpha virt. eigenvalues --    0.64444   0.64596   0.65020   0.65497   0.65594
 Alpha virt. eigenvalues --    0.65764   0.66151   0.66303   0.66549   0.66606
 Alpha virt. eigenvalues --    0.67282   0.67422   0.67670   0.68050   0.68105
 Alpha virt. eigenvalues --    0.68335   0.68555   0.68851   0.69096   0.69443
 Alpha virt. eigenvalues --    0.69812   0.70098   0.70235   0.70505   0.70755
 Alpha virt. eigenvalues --    0.70938   0.71225   0.71434   0.71584   0.72196
 Alpha virt. eigenvalues --    0.72352   0.72713   0.72858   0.73108   0.73246
 Alpha virt. eigenvalues --    0.73815   0.73961   0.74138   0.74348   0.74791
 Alpha virt. eigenvalues --    0.74903   0.75279   0.75389   0.75665   0.75825
 Alpha virt. eigenvalues --    0.76042   0.76425   0.76610   0.76865   0.77270
 Alpha virt. eigenvalues --    0.77414   0.77620   0.77790   0.78007   0.78347
 Alpha virt. eigenvalues --    0.79053   0.79371   0.79429   0.79703   0.79993
 Alpha virt. eigenvalues --    0.80204   0.80670   0.80836   0.81002   0.81326
 Alpha virt. eigenvalues --    0.81472   0.81567   0.82072   0.82529   0.82645
 Alpha virt. eigenvalues --    0.82974   0.83140   0.83403   0.83826   0.84011
 Alpha virt. eigenvalues --    0.84233   0.84693   0.84729   0.84944   0.85211
 Alpha virt. eigenvalues --    0.85491   0.85701   0.86287   0.86586   0.86943
 Alpha virt. eigenvalues --    0.87279   0.87550   0.87773   0.88024   0.88452
 Alpha virt. eigenvalues --    0.88983   0.89086   0.89201   0.89469   0.89565
 Alpha virt. eigenvalues --    0.90050   0.90311   0.90529   0.90862   0.91000
 Alpha virt. eigenvalues --    0.91673   0.91817   0.92347   0.92476   0.92619
 Alpha virt. eigenvalues --    0.93008   0.93232   0.93818   0.93961   0.94153
 Alpha virt. eigenvalues --    0.94669   0.94740   0.95010   0.95198   0.95664
 Alpha virt. eigenvalues --    0.95963   0.96477   0.96820   0.97017   0.97669
 Alpha virt. eigenvalues --    0.97869   0.98189   0.98501   0.98936   0.99270
 Alpha virt. eigenvalues --    0.99418   0.99766   0.99887   1.00267   1.00494
 Alpha virt. eigenvalues --    1.01123   1.01506   1.01529   1.01760   1.02238
 Alpha virt. eigenvalues --    1.02485   1.02842   1.03416   1.03699   1.04169
 Alpha virt. eigenvalues --    1.04297   1.04634   1.05101   1.05320   1.05518
 Alpha virt. eigenvalues --    1.05961   1.06496   1.06632   1.06810   1.06990
 Alpha virt. eigenvalues --    1.07690   1.07954   1.08353   1.08736   1.09031
 Alpha virt. eigenvalues --    1.09493   1.09841   1.10268   1.10579   1.10859
 Alpha virt. eigenvalues --    1.10988   1.11897   1.12138   1.12218   1.12719
 Alpha virt. eigenvalues --    1.12940   1.13340   1.13850   1.14169   1.14647
 Alpha virt. eigenvalues --    1.15091   1.15119   1.15612   1.15952   1.16112
 Alpha virt. eigenvalues --    1.17057   1.17175   1.17522   1.17931   1.18327
 Alpha virt. eigenvalues --    1.18716   1.19262   1.20131   1.20439   1.20807
 Alpha virt. eigenvalues --    1.21333   1.22048   1.22255   1.22649   1.22737
 Alpha virt. eigenvalues --    1.23402   1.23928   1.24440   1.24746   1.25247
 Alpha virt. eigenvalues --    1.25708   1.26280   1.26442   1.26945   1.27836
 Alpha virt. eigenvalues --    1.27967   1.28194   1.28736   1.29269   1.29510
 Alpha virt. eigenvalues --    1.29660   1.30366   1.30709   1.31184   1.31543
 Alpha virt. eigenvalues --    1.32204   1.32429   1.33072   1.33261   1.33562
 Alpha virt. eigenvalues --    1.33673   1.34294   1.34694   1.34978   1.35415
 Alpha virt. eigenvalues --    1.35657   1.36212   1.36593   1.36981   1.37383
 Alpha virt. eigenvalues --    1.37601   1.38558   1.38822   1.39568   1.39864
 Alpha virt. eigenvalues --    1.40143   1.40312   1.40820   1.41239   1.41428
 Alpha virt. eigenvalues --    1.42017   1.42206   1.42651   1.43113   1.43620
 Alpha virt. eigenvalues --    1.44030   1.45059   1.45266   1.45342   1.46091
 Alpha virt. eigenvalues --    1.46187   1.46408   1.47320   1.47673   1.47921
 Alpha virt. eigenvalues --    1.48694   1.48967   1.49299   1.50065   1.50371
 Alpha virt. eigenvalues --    1.50417   1.51122   1.51777   1.51817   1.51992
 Alpha virt. eigenvalues --    1.53229   1.53618   1.54039   1.54093   1.55042
 Alpha virt. eigenvalues --    1.55388   1.55870   1.56488   1.57020   1.57089
 Alpha virt. eigenvalues --    1.57957   1.58543   1.59121   1.59717   1.59801
 Alpha virt. eigenvalues --    1.59921   1.60905   1.61195   1.61842   1.62402
 Alpha virt. eigenvalues --    1.63159   1.63514   1.63827   1.64909   1.65638
 Alpha virt. eigenvalues --    1.66221   1.66653   1.67031   1.68025   1.68437
 Alpha virt. eigenvalues --    1.68780   1.69427   1.70356   1.70598   1.71321
 Alpha virt. eigenvalues --    1.71592   1.72286   1.73275   1.73772   1.74205
 Alpha virt. eigenvalues --    1.74454   1.75217   1.75486   1.75870   1.76770
 Alpha virt. eigenvalues --    1.78087   1.78143   1.78831   1.79625   1.79832
 Alpha virt. eigenvalues --    1.80551   1.81107   1.81534   1.82372   1.82902
 Alpha virt. eigenvalues --    1.83765   1.84055   1.84293   1.84814   1.85498
 Alpha virt. eigenvalues --    1.85545   1.85940   1.86103   1.86628   1.87809
 Alpha virt. eigenvalues --    1.88382   1.88690   1.89433   1.89835   1.90268
 Alpha virt. eigenvalues --    1.90915   1.91916   1.92057   1.92848   1.93102
 Alpha virt. eigenvalues --    1.93633   1.93980   1.94401   1.95526   1.95842
 Alpha virt. eigenvalues --    1.96714   1.97140   1.97748   1.98334   1.98910
 Alpha virt. eigenvalues --    1.99246   2.00087   2.00535   2.01651   2.01719
 Alpha virt. eigenvalues --    2.02077   2.03487   2.03744   2.03956   2.05081
 Alpha virt. eigenvalues --    2.05518   2.05737   2.06152   2.06587   2.06757
 Alpha virt. eigenvalues --    2.07977   2.08851   2.09583   2.10064   2.11017
 Alpha virt. eigenvalues --    2.11295   2.11854   2.12244   2.13047   2.13664
 Alpha virt. eigenvalues --    2.14124   2.14487   2.15358   2.15889   2.16208
 Alpha virt. eigenvalues --    2.16415   2.16837   2.17439   2.17828   2.18278
 Alpha virt. eigenvalues --    2.18672   2.19682   2.19828   2.20522   2.20884
 Alpha virt. eigenvalues --    2.21553   2.21973   2.22557   2.23448   2.23873
 Alpha virt. eigenvalues --    2.24495   2.25130   2.26127   2.26755   2.28077
 Alpha virt. eigenvalues --    2.28774   2.29431   2.30164   2.30430   2.30823
 Alpha virt. eigenvalues --    2.31431   2.31471   2.32809   2.33012   2.33306
 Alpha virt. eigenvalues --    2.33754   2.34164   2.34785   2.35045   2.35683
 Alpha virt. eigenvalues --    2.36231   2.36533   2.37187   2.37634   2.38205
 Alpha virt. eigenvalues --    2.38325   2.38919   2.39425   2.40152   2.40504
 Alpha virt. eigenvalues --    2.41611   2.42145   2.42417   2.43182   2.43403
 Alpha virt. eigenvalues --    2.44341   2.45017   2.45399   2.46024   2.46433
 Alpha virt. eigenvalues --    2.47550   2.47754   2.48082   2.48873   2.49518
 Alpha virt. eigenvalues --    2.50515   2.51046   2.51863   2.52254   2.53162
 Alpha virt. eigenvalues --    2.53707   2.54761   2.55675   2.56342   2.56515
 Alpha virt. eigenvalues --    2.57278   2.57580   2.59024   2.59744   2.60861
 Alpha virt. eigenvalues --    2.60972   2.61959   2.62378   2.62663   2.63635
 Alpha virt. eigenvalues --    2.63703   2.64182   2.65801   2.66029   2.66656
 Alpha virt. eigenvalues --    2.67011   2.67952   2.68557   2.68645   2.70162
 Alpha virt. eigenvalues --    2.70429   2.71381   2.72540   2.73563   2.74311
 Alpha virt. eigenvalues --    2.74442   2.75250   2.75992   2.76933   2.77760
 Alpha virt. eigenvalues --    2.78436   2.78869   2.79319   2.79567   2.80345
 Alpha virt. eigenvalues --    2.81076   2.82103   2.82705   2.83909   2.84001
 Alpha virt. eigenvalues --    2.85151   2.85805   2.89608   2.91220   2.93207
 Alpha virt. eigenvalues --    2.94057   2.95200   2.96986   2.97435   2.98265
 Alpha virt. eigenvalues --    2.99745   3.01283   3.02475   3.04856   3.05631
 Alpha virt. eigenvalues --    3.06451   3.06780   3.07292   3.08405   3.08552
 Alpha virt. eigenvalues --    3.10669   3.11150   3.12504   3.12656   3.13141
 Alpha virt. eigenvalues --    3.13619   3.14543   3.15048   3.15462   3.16123
 Alpha virt. eigenvalues --    3.17122   3.17217   3.17685   3.19706   3.20328
 Alpha virt. eigenvalues --    3.21242   3.22281   3.22854   3.23145   3.23413
 Alpha virt. eigenvalues --    3.24795   3.25116   3.26919   3.28006   3.28187
 Alpha virt. eigenvalues --    3.29194   3.29395   3.29697   3.29991   3.30954
 Alpha virt. eigenvalues --    3.31627   3.32485   3.32901   3.33411   3.33890
 Alpha virt. eigenvalues --    3.34294   3.35352   3.38596   3.41006   3.43513
 Alpha virt. eigenvalues --    3.46839   3.50824   3.51987   3.52947   3.60812
 Alpha virt. eigenvalues --    3.61560   3.63636   3.71047   3.75077   3.94844
 Alpha virt. eigenvalues --    3.96967   3.99824   4.00846   4.04390   4.09875
 Alpha virt. eigenvalues --    4.16687   4.18802   4.19689   4.21597   4.22240
 Alpha virt. eigenvalues --    4.23572   4.24135   4.26170   4.26847   4.27899
 Alpha virt. eigenvalues --    4.29630   4.30301   4.30561   4.30740   4.33744
 Alpha virt. eigenvalues --    4.34792   4.36987   4.39403   4.40800   4.41073
 Alpha virt. eigenvalues --    4.42416   4.43800   4.44191   4.45314   4.46617
 Alpha virt. eigenvalues --    4.48974   4.50480   4.55208   4.64004   4.81893
 Alpha virt. eigenvalues --    5.47057   5.60394   5.66120   5.83022   5.96290
 Alpha virt. eigenvalues --    6.01496   6.09136   6.12084   6.13289   6.23256
 Alpha virt. eigenvalues --    6.50629   6.68006   6.69307   6.69558   6.69855
 Alpha virt. eigenvalues --    6.72178   6.72255   6.73125   6.73613   6.73921
 Alpha virt. eigenvalues --    6.74199   6.74827   6.76395   6.77192   6.78985
 Alpha virt. eigenvalues --    6.81571   6.83629   6.85464   6.90046   6.91116
 Alpha virt. eigenvalues --    6.91521   6.92974   6.93037   6.93915   6.94864
 Alpha virt. eigenvalues --    6.94934   6.97198   6.98249   6.98929   6.99198
 Alpha virt. eigenvalues --    7.00795   7.02462   7.02988   7.03946   7.05424
 Alpha virt. eigenvalues --    7.06587   7.08561   7.11290   7.13515   7.21856
 Alpha virt. eigenvalues --    7.64351   7.69376   7.72191   7.73010   7.74934
 Alpha virt. eigenvalues --    7.75388   8.49100   8.50142   8.50578   8.51037
 Alpha virt. eigenvalues --    8.51503   8.52450   8.54802   8.61008   8.71593
 Alpha virt. eigenvalues --    9.00494   9.82926   9.83688   9.85659   9.87585
 Alpha virt. eigenvalues --    9.89409   9.90182   9.96590   9.99681  10.01753
 Alpha virt. eigenvalues --   10.05794  10.06173  10.07662  10.10902  10.33144
 Alpha virt. eigenvalues --   14.02204  14.05891  14.14532  15.60280  16.73542
 Alpha virt. eigenvalues --   16.77979  16.91400  17.02200  17.04455  17.06524
 Alpha virt. eigenvalues --   17.07647  17.07984  17.08475  17.09513  17.11652
 Alpha virt. eigenvalues --   17.14956  17.15892  17.19348  17.19952  17.22048
 Alpha virt. eigenvalues --   17.23965  17.24878  17.30444  17.36001  17.45197
 Alpha virt. eigenvalues --   20.23818  20.29336  20.43856  21.06400  21.31335
 Alpha virt. eigenvalues --   21.33070  25.46196  25.55933  25.59510  26.17017
 Alpha virt. eigenvalues --   31.67751  31.69502  31.73620  31.75449  31.80405
 Alpha virt. eigenvalues --   42.99051  43.02488  43.03051  43.05583  43.21426
 Alpha virt. eigenvalues --   61.74698  61.85653  62.97270  65.10926  78.05542
 Alpha virt. eigenvalues --   78.09987  78.21532  82.21437  86.17597  86.38106
 Alpha virt. eigenvalues --   86.39320  89.27315  89.29791  89.32008  89.33516
 Alpha virt. eigenvalues --   89.33798  89.34304  89.36127  89.38442  89.40513
 Alpha virt. eigenvalues --   89.41651  89.45207  89.45374  89.47977  89.48944
 Alpha virt. eigenvalues --   89.50745  89.56921  89.63889  89.70000 112.68595
 Alpha virt. eigenvalues --  112.72465 112.82242 121.81773 121.88671 121.91162
 Alpha virt. eigenvalues --  239.15480 257.32179 282.44815 332.07151 332.18743
 Alpha virt. eigenvalues --  428.77230 428.93309 428.94336 431.67100 431.71861
 Alpha virt. eigenvalues --  431.84023 590.19421 590.24765 590.26612 772.99713
 Alpha virt. eigenvalues --  839.557611043.610052068.596362529.936825495.39618
 Alpha virt. eigenvalues -- 5634.48328******************************
          Condensed to atoms (all electrons):
 Mulliken charges:
               1
     1  Pt   0.361719
     2  P    0.046512
     3  P    0.160212
     4  C   -0.355237
     5  H    0.088161
     6  H    0.094240
     7  C   -0.173640
     8  H    0.107564
     9  H    0.137847
    10  H    0.112424
    11  C   -0.335613
    12  H    0.098257
    13  C   -0.324638
    14  H    0.111671
    15  H    0.087155
    16  C   -0.074473
    17  H    0.119600
    18  H    0.037509
    19  H    0.091126
    20  C   -0.374572
    21  H    0.111882
    22  H    0.079368
    23  C   -0.107060
    24  H    0.102837
    25  H    0.075691
    26  H    0.133132
    27  C   -0.401249
    28  H    0.083458
    29  H    0.079049
    30  C   -0.175219
    31  H    0.136402
    32  H    0.114976
    33  H    0.111921
    34  C   -0.406646
    35  H    0.103160
    36  H    0.090908
    37  C   -0.111049
    38  H    0.135157
    39  H    0.071501
    40  H    0.099656
    41  Sn   0.311738
    42  Cl  -0.286083
    43  Cl  -0.279176
    44  Cl  -0.221858
    45  C   -0.166634
    46  H    0.132542
    47  H    0.116877
    48  H    0.111179
    49  H    0.079084
    50  C   -0.078233
    51  C   -0.742130
    52  C   -0.081242
    53  C    1.476289
    54  H    0.033825
    55  C   -0.218426
    56  H    0.072926
    57  C   -1.068695
    58  H    0.127553
    59  H    0.120849
    60  Br   0.215917
 Sum of Mulliken charges =   0.00000
 Mulliken charges with hydrogens summed into heavy atoms:
               1
     1  Pt   0.361719
     2  P    0.046512
     3  P    0.160212
     4  C   -0.172836
     7  C    0.184194
    11  C   -0.158272
    13  C   -0.125812
    16  C    0.173761
    20  C   -0.183322
    23  C    0.204602
    27  C   -0.238743
    30  C    0.188080
    34  C   -0.212579
    37  C    0.195265
    41  Sn   0.311738
    42  Cl  -0.286083
    43  Cl  -0.279176
    44  Cl  -0.221858
    45  C    0.193963
    50  C   -0.078233
    51  C   -0.708305
    52  C   -0.008316
    53  C    1.476289
    55  C   -0.090872
    57  C   -0.947846
    60  Br   0.215917
 Electronic spatial extent (au):  <R**2>=          19020.3985
 Charge=              0.0000 electrons
 Dipole moment (field-independent basis, Debye):
    X=             10.4695    Y=              0.9163    Z=              3.8609  Tot=             11.1963
 Quadrupole moment (field-independent basis, Debye-Ang):
   XX=           -318.2651   YY=           -222.7199   ZZ=           -251.3125
   XY=             -7.7529   XZ=             -0.5799   YZ=              1.0105
 Traceless Quadrupole moment (field-independent basis, Debye-Ang):
   XX=            -54.1659   YY=             41.3793   ZZ=             12.7866
   XY=             -7.7529   XZ=             -0.5799   YZ=              1.0105
 Octapole moment (field-independent basis, Debye-Ang**2):
  XXX=            191.2385  YYY=             -1.1567  ZZZ=            -11.6009  XYY=             25.8013
  XXY=             14.4858  XXZ=             53.6880  XZZ=             57.9201  YZZ=             -6.7553
  YYZ=              9.6436  XYZ=              4.6834
 Hexadecapole moment (field-independent basis, Debye-Ang**3):
 XXXX=         -13648.8893 YYYY=          -7556.8506 ZZZZ=          -3002.6000 XXXY=            -52.8137
 XXXZ=            -65.6815 YYYX=            -62.2914 YYYZ=            -20.5074 ZZZX=           -171.2670
 ZZZY=             16.3881 XXYY=          -3492.5216 XXZZ=          -2654.5242 YYZZ=          -1773.1808
 XXYZ=             18.7188 YYXZ=           -123.5930 ZZXY=             35.9709
 N-N= 8.621197417769D+03 E-N=-8.456375575323D+04  KE= 2.801378133104D+04
 Calculating spin-rotation constants.
 Leave Link  601 at Mon Aug 26 04:51:04 2019, MaxMem=   939524096 cpu:       318.6
 (Enter /scr/programas/g09/l9999.exe)
 1\1\GINC-NQTCM\SP\RPBEPBE\Gen\C18H34Br1Cl3P2Pt1Sn1\NQTCM\26-Aug-2019\0
 \\#PBEPBE/gen scf=(maxcycle=500,conver=4) NMR=GIAO Scrf=(solvent=Dichl
 oromethane)\\estrutura 80\\0,1\Pt,0,-0.060383,-0.038604,0.230592\P,0,-
 0.214369,2.368733,0.290604\P,0,0.157659,-2.428419,0.163637\C,0,-0.1828
 58,3.019615,-1.443424\H,0,-0.975506,2.466455,-1.971817\H,0,0.772458,2.
 669977,-1.870092\C,0,-0.355345,4.526966,-1.653406\H,0,0.385091,5.11887
 6,-1.093661\H,0,-0.229557,4.769406,-2.721095\H,0,-1.358866,4.868476,-1
 .357837\C,0,-1.831618,2.917338,1.044281\H,0,-2.07596,2.169745,1.813997
 \C,0,1.06609,3.334384,1.228813\H,0,0.612272,4.315029,1.43364\H,0,1.175
 535,2.833506,2.203623\C,0,2.432332,3.539822,0.571039\H,0,3.068403,4.14
 2518,1.239216\H,0,2.95224,2.593376,0.37667\H,0,2.351851,4.087652,-0.38
 0392\C,0,-1.035631,-3.320012,1.2681\H,0,-0.836287,-4.399308,1.162632\H
 ,0,-2.038524,-3.153676,0.850036\C,0,-0.964774,-2.885428,2.735015\H,0,0
 .039678,-3.044974,3.164415\H,0,-1.213343,-1.819815,2.847619\H,0,-1.671
 49,-3.468912,3.343398\C,0,1.827756,-3.087345,0.646296\H,0,2.522952,-2.
 737021,-0.135161\H,0,2.127384,-2.558893,1.565139\C,0,1.938096,-4.60313
 5,0.834163\H,0,2.994564,-4.881516,0.991314\H,0,1.37435,-4.953479,1.714
 065\H,0,1.583593,-5.163763,-0.042499\C,0,-0.151238,-3.151767,-1.51793\
 H,0,0.107627,-4.221902,-1.465162\H,0,-1.237804,-3.098372,-1.698041\C,0
 ,0.61457,-2.461685,-2.651116\H,0,0.333303,-2.901782,-3.620724\H,0,0.38
 2732,-1.385086,-2.689364\H,0,1.706606,-2.56586,-2.54283\Sn,0,-2.717847
 ,-0.233758,-0.36541\Cl,0,-4.25692,0.109097,1.511477\Cl,0,-3.701347,1.3
 31345,-1.985206\Cl,0,-3.800539,-2.262833,-1.218772\C,0,-1.953209,4.324
 539,1.637902\H,0,-2.992575,4.484975,1.967063\H,0,-1.309305,4.458792,2.
 520127\H,0,-1.711913,5.11655,0.913801\H,0,-2.574879,2.780273,0.241178\
 C,0,1.926722,0.099036,0.725389\C,0,2.915253,0.062653,-0.274473\C,0,2.3
 36094,0.210564,2.066032\C,0,4.267199,0.137099,0.077091\H,0,2.640102,-0
 .020068,-1.327738\C,0,3.69345,0.290228,2.398986\H,0,1.592704,0.236951,
 2.867279\C,0,4.67804,0.254721,1.406242\H,0,3.992382,0.382127,3.446844\
 H,0,5.736866,0.318923,1.66083\Br,0,5.594295,0.082577,-1.30735\\Version
 =EM64L-G09RevD.01\State=1-A\HF=-28427.2403497\RMSD=1.749e-05\Dipole=4.
 1190084,0.3605037,1.5190106\Quadrupole=-40.2710388,30.7644795,9.506559
 3,-5.7641158,-0.4311676,0.751272\PG=C01 [X(C18H34Br1Cl3P2Pt1Sn1)]\\@


 TO ERR IS HUMAN - AND TO BLAME IT ON A COMPUTER IS EVEN MORE SO.
 Job cpu time:       0 days 18 hours 25 minutes 20.8 seconds.
 File lengths (MBytes):  RWF=   1187 Int=      0 D2E=      0 Chk=     85 Scr=      1
 Normal termination of Gaussian 09 at Mon Aug 26 04:51:04 2019.
