 Entering Gaussian System, Link 0=g09
 Input=estrutura22.com
 Output=estrutura22.log
 Initial command:
 /home/scr/programs/g09/l1.exe /home/scr/guest1/Gau-15108.inp -scrdir=/home/scr/guest1/
 Entering Link 1 = /home/scr/programs/g09/l1.exe PID=     15109.
  
 Copyright (c) 1988,1990,1992,1993,1995,1998,2003,2009, Gaussian, Inc.
                  All Rights Reserved.
  
 This is part of the Gaussian(R) 09 program.  It is based on
 the Gaussian(R) 03 system (copyright 2003, Gaussian, Inc.),
 the Gaussian(R) 98 system (copyright 1998, Gaussian, Inc.),
 the Gaussian(R) 94 system (copyright 1995, Gaussian, Inc.),
 the Gaussian 92(TM) system (copyright 1992, Gaussian, Inc.),
 the Gaussian 90(TM) system (copyright 1990, Gaussian, Inc.),
 the Gaussian 88(TM) system (copyright 1988, Gaussian, Inc.),
 the Gaussian 86(TM) system (copyright 1986, Carnegie Mellon
 University), and the Gaussian 82(TM) system (copyright 1983,
 Carnegie Mellon University). Gaussian is a federally registered
 trademark of Gaussian, Inc.
  
 This software contains proprietary and confidential information,
 including trade secrets, belonging to Gaussian, Inc.
  
 This software is provided under written license and may be
 used, copied, transmitted, or stored only in accord with that
 written license.
  
 The following legend is applicable only to US Government
 contracts under FAR:
  
                    RESTRICTED RIGHTS LEGEND
  
 Use, reproduction and disclosure by the US Government is
 subject to restrictions as set forth in subparagraphs (a)
 and (c) of the Commercial Computer Software - Restricted
 Rights clause in FAR 52.227-19.
  
 Gaussian, Inc.
 340 Quinnipiac St., Bldg. 40, Wallingford CT 06492
  
  
 ---------------------------------------------------------------
 Warning -- This program may not be used in any manner that
 competes with the business of Gaussian, Inc. or will provide
 assistance to any competitor of Gaussian, Inc.  The licensee
 of this program is prohibited from giving any competitor of
 Gaussian, Inc. access to this program.  By using this program,
 the user acknowledges that Gaussian, Inc. is engaged in the
 business of creating and licensing software in the field of
 computational chemistry and represents and warrants to the
 licensee that it is not a competitor of Gaussian, Inc. and that
 it will not use this program in any manner prohibited above.
 ---------------------------------------------------------------
  

 Cite this work as:
 Gaussian 09, Revision A.02,
 M. J. Frisch, G. W. Trucks, H. B. Schlegel, G. E. Scuseria, 
 M. A. Robb, J. R. Cheeseman, G. Scalmani, V. Barone, B. Mennucci, 
 G. A. Petersson, H. Nakatsuji, M. Caricato, X. Li, H. P. Hratchian, 
 A. F. Izmaylov, J. Bloino, G. Zheng, J. L. Sonnenberg, M. Hada, 
 M. Ehara, K. Toyota, R. Fukuda, J. Hasegawa, M. Ishida, T. Nakajima, 
 Y. Honda, O. Kitao, H. Nakai, T. Vreven, J. A. Montgomery, Jr., 
 J. E. Peralta, F. Ogliaro, M. Bearpark, J. J. Heyd, E. Brothers, 
 K. N. Kudin, V. N. Staroverov, R. Kobayashi, J. Normand, 
 K. Raghavachari, A. Rendell, J. C. Burant, S. S. Iyengar, J. Tomasi, 
 M. Cossi, N. Rega, J. M. Millam, M. Klene, J. E. Knox, J. B. Cross, 
 V. Bakken, C. Adamo, J. Jaramillo, R. Gomperts, R. E. Stratmann, 
 O. Yazyev, A. J. Austin, R. Cammi, C. Pomelli, J. W. Ochterski, 
 R. L. Martin, K. Morokuma, V. G. Zakrzewski, G. A. Voth, 
 P. Salvador, J. J. Dannenberg, S. Dapprich, A. D. Daniels, 
 O. Farkas, J. B. Foresman, J. V. Ortiz, J. Cioslowski, 
 and D. J. Fox, Gaussian, Inc., Wallingford CT, 2009.
 
 ******************************************
 Gaussian 09:  EM64L-G09RevA.02 11-Jun-2009
                 5-Jul-2020 
 ******************************************
 %mem=100Gb
 %nproc=32
 Will use up to   32 processors via shared memory.
 ----------------------------------------------------------------------
 #PBEPBE/gen scf=(maxcycle=500,conver=4) NMR=GIAO Scrf=(solvent=acetone
 )
 ----------------------------------------------------------------------
 1/38=1/1;
 2/12=2,17=6,18=5,40=1/2;
 3/5=7,11=2,16=1,25=1,30=1,70=2201,72=19,74=1009/1,2,8,3;
 4//1;
 5/5=2,6=4,7=500,38=5,53=19/2;
 8/6=1,10=90,11=11/1;
 10/13=100,45=16/2;
 6/7=2,8=2,9=2,10=2,28=1/1;
 99/9=1/99;
 Leave Link    1 at Sun Jul  5 03:03:15 2020, MaxMem=13421772800 cpu:       3.2
 (Enter /home/scr/programs/g09/l101.exe)
 ------------
 estrutura 22
 ------------
 Symbolic Z-matrix:
 Charge = -1 Multiplicity = 1
 Sn                   -2.81532  -0.19455  -0.20396 
 Sn                    1.30612   2.32391  -0.05844 
 Cl                   -3.77422  -2.35221   0.45523 
 Cl                   -4.18636   1.31311   1.13733 
 Cl                   -4.00699   0.06075  -2.32157 
 Cl                    2.51477   3.07076   1.93597 
 Cl                    3.11639   2.69837  -1.65982 
 Cl                   -0.03343   4.32668  -0.50498 
 O                    -0.73935  -1.02405  -3.2974 
 O                     1.73232  -0.58952  -2.61876 
 C                     2.33547  -0.65641  -3.92487 
 H                     2.71562   0.33457  -4.20401 
 H                     3.16322  -1.37014  -3.8449 
 H                     1.61454  -1.0119   -4.67288 
 C                    -1.14686  -2.37738  -3.03968 
 H                    -0.29436  -3.06186  -3.14562 
 H                    -1.56979  -2.48042  -2.02859 
 H                    -1.92275  -2.61111  -3.77875 
 Pt                   -0.10399  -0.03527  -0.05344 
 P                    -0.35385   0.2174    2.25246 
 O                     1.02252  -0.18454   2.99145 
 O                    -1.53777  -0.54627   3.04266 
 O                    -0.70775   1.74504   2.60514 
 C                    -1.54331  -1.92526   3.47908 
 H                    -2.40044  -2.42368   3.00703 
 H                    -0.61484  -2.44329   3.20453 
 H                    -1.6588   -1.92528   4.57361 
 C                    -1.47417   2.21914   3.73303 
 H                    -1.42773   3.31325   3.6859 
 H                    -2.51366   1.88316   3.64275 
 H                    -1.04379   1.87555   4.68315 
 C                     1.389     0.21432   4.3252 
 H                     2.30977  -0.33113   4.56698 
 H                     1.58284   1.29667   4.34498 
 H                     0.60413  -0.0514    5.05038 
 Sn                    1.63016  -2.12667   0.24195 
 Cl                    3.94615  -1.39352   0.55714 
 Cl                    2.00789  -3.81096  -1.51091 
 Cl                    1.51275  -3.71987   2.11191 
 P                     0.21548  -0.11899  -2.36018 
 O                     0.13076   1.2884   -3.13772 
 C                    -0.98041   1.7877   -3.91276 
 H                    -1.89384   1.84192  -3.30395 
 H                    -0.69004   2.7953   -4.23571 
 H                    -1.15347   1.14224  -4.78651 
 
 NAtoms=     45 NQM=     45 NQMF=      0 NMic=      0 NMicF=      0 NTot=     45.
                    Isotopes and Nuclear Properties:
 (Nuclear quadrupole moments (NQMom) in fm**2, nuclear magnetic moments (NMagM)
  in nuclear magnetons)

  Atom         1           2           3           4           5           6           7           8           9          10
 IAtWgt=         118         118          35          35          35          35          35          35          16          16
 AtmWgt= 117.9018000 117.9018000  34.9688527  34.9688527  34.9688527  34.9688527  34.9688527  34.9688527  15.9949146  15.9949146
 NucSpn=           0           0           3           3           3           3           3           3           0           0
 AtZEff=   0.0000000   0.0000000   0.0000000   0.0000000   0.0000000   0.0000000   0.0000000   0.0000000   0.0000000   0.0000000
 NQMom=    0.0000000   0.0000000  -8.1650000  -8.1650000  -8.1650000  -8.1650000  -8.1650000  -8.1650000   0.0000000   0.0000000
 NMagM=    0.0000000   0.0000000   0.8218740   0.8218740   0.8218740   0.8218740   0.8218740   0.8218740   0.0000000   0.0000000

  Atom        11          12          13          14          15          16          17          18          19          20
 IAtWgt=          12           1           1           1          12           1           1           1         195          31
 AtmWgt=  12.0000000   1.0078250   1.0078250   1.0078250  12.0000000   1.0078250   1.0078250   1.0078250 194.9648000  30.9737634
 NucSpn=           0           1           1           1           0           1           1           1           1           1
 AtZEff=   0.0000000   0.0000000   0.0000000   0.0000000   0.0000000   0.0000000   0.0000000   0.0000000   0.0000000   0.0000000
 NQMom=    0.0000000   0.0000000   0.0000000   0.0000000   0.0000000   0.0000000   0.0000000   0.0000000   0.0000000   0.0000000
 NMagM=    0.0000000   2.7928460   2.7928460   2.7928460   0.0000000   2.7928460   2.7928460   2.7928460   0.6095000   1.1316000

  Atom        21          22          23          24          25          26          27          28          29          30
 IAtWgt=          16          16          16          12           1           1           1          12           1           1
 AtmWgt=  15.9949146  15.9949146  15.9949146  12.0000000   1.0078250   1.0078250   1.0078250  12.0000000   1.0078250   1.0078250
 NucSpn=           0           0           0           0           1           1           1           0           1           1
 AtZEff=   0.0000000   0.0000000   0.0000000   0.0000000   0.0000000   0.0000000   0.0000000   0.0000000   0.0000000   0.0000000
 NQMom=    0.0000000   0.0000000   0.0000000   0.0000000   0.0000000   0.0000000   0.0000000   0.0000000   0.0000000   0.0000000
 NMagM=    0.0000000   0.0000000   0.0000000   0.0000000   2.7928460   2.7928460   2.7928460   0.0000000   2.7928460   2.7928460

  Atom        31          32          33          34          35          36          37          38          39          40
 IAtWgt=           1          12           1           1           1         118          35          35          35          31
 AtmWgt=   1.0078250  12.0000000   1.0078250   1.0078250   1.0078250 117.9018000  34.9688527  34.9688527  34.9688527  30.9737634
 NucSpn=           1           0           1           1           1           0           3           3           3           1
 AtZEff=   0.0000000   0.0000000   0.0000000   0.0000000   0.0000000   0.0000000   0.0000000   0.0000000   0.0000000   0.0000000
 NQMom=    0.0000000   0.0000000   0.0000000   0.0000000   0.0000000   0.0000000  -8.1650000  -8.1650000  -8.1650000   0.0000000
 NMagM=    2.7928460   0.0000000   2.7928460   2.7928460   2.7928460   0.0000000   0.8218740   0.8218740   0.8218740   1.1316000

  Atom        41          42          43          44          45
 IAtWgt=          16          12           1           1           1
 AtmWgt=  15.9949146  12.0000000   1.0078250   1.0078250   1.0078250
 NucSpn=           0           0           1           1           1
 AtZEff=   0.0000000   0.0000000   0.0000000   0.0000000   0.0000000
 NQMom=    0.0000000   0.0000000   0.0000000   0.0000000   0.0000000
 NMagM=    0.0000000   0.0000000   2.7928460   2.7928460   2.7928460
 Leave Link  101 at Sun Jul  5 03:03:15 2020, MaxMem=13421772800 cpu:       2.7
 (Enter /home/scr/programs/g09/l202.exe)
                          Input orientation:                          
 ---------------------------------------------------------------------
 Center     Atomic      Atomic             Coordinates (Angstroms)
 Number     Number       Type             X           Y           Z
 ---------------------------------------------------------------------
      1         50           0       -2.815316   -0.194549   -0.203955
      2         50           0        1.306116    2.323906   -0.058441
      3         17           0       -3.774221   -2.352206    0.455228
      4         17           0       -4.186356    1.313113    1.137325
      5         17           0       -4.006990    0.060748   -2.321565
      6         17           0        2.514771    3.070763    1.935972
      7         17           0        3.116393    2.698367   -1.659817
      8         17           0       -0.033430    4.326681   -0.504978
      9          8           0       -0.739351   -1.024047   -3.297402
     10          8           0        1.732318   -0.589522   -2.618762
     11          6           0        2.335465   -0.656409   -3.924873
     12          1           0        2.715615    0.334569   -4.204005
     13          1           0        3.163216   -1.370136   -3.844902
     14          1           0        1.614536   -1.011896   -4.672879
     15          6           0       -1.146857   -2.377378   -3.039679
     16          1           0       -0.294359   -3.061857   -3.145622
     17          1           0       -1.569785   -2.480417   -2.028587
     18          1           0       -1.922752   -2.611107   -3.778751
     19         78           0       -0.103990   -0.035269   -0.053440
     20         15           0       -0.353848    0.217401    2.252456
     21          8           0        1.022520   -0.184542    2.991450
     22          8           0       -1.537767   -0.546268    3.042665
     23          8           0       -0.707753    1.745037    2.605143
     24          6           0       -1.543307   -1.925258    3.479075
     25          1           0       -2.400438   -2.423682    3.007033
     26          1           0       -0.614839   -2.443287    3.204532
     27          1           0       -1.658800   -1.925279    4.573606
     28          6           0       -1.474169    2.219142    3.733027
     29          1           0       -1.427733    3.313254    3.685903
     30          1           0       -2.513661    1.883155    3.642749
     31          1           0       -1.043794    1.875547    4.683153
     32          6           0        1.389002    0.214321    4.325197
     33          1           0        2.309766   -0.331130    4.566976
     34          1           0        1.582841    1.296665    4.344977
     35          1           0        0.604131   -0.051398    5.050379
     36         50           0        1.630155   -2.126673    0.241952
     37         17           0        3.946147   -1.393519    0.557137
     38         17           0        2.007889   -3.810960   -1.510906
     39         17           0        1.512754   -3.719870    2.111906
     40         15           0        0.215482   -0.118991   -2.360179
     41          8           0        0.130755    1.288395   -3.137722
     42          6           0       -0.980412    1.787698   -3.912764
     43          1           0       -1.893843    1.841918   -3.303953
     44          1           0       -0.690040    2.795295   -4.235713
     45          1           0       -1.153474    1.142235   -4.786511
 ---------------------------------------------------------------------
                    Distance matrix (angstroms):
                    1          2          3          4          5
     1  Sn   0.000000
     2  Sn   4.832183   0.000000
     3  Cl   2.451429   6.923850   0.000000
     4  Cl   2.439637   5.711288   3.750957   0.000000
     5  Cl   2.443263   6.202637   3.686069   3.683003   0.000000
     6  Cl   6.606919   2.448740   8.435201   6.973684   8.349861
     7  Cl   6.758230   2.445757   8.801265   7.941856   7.624797
     8  Cl   5.317050   2.450487   7.715118   5.387536   6.106337
     9  O    3.816689   5.087592   5.005664   6.083664   3.578617
    10  O    5.164133   3.901917   6.548163   7.263533   5.783670
    11  C    6.370957   4.989101   7.706444   8.487580   6.581158
    12  H    6.846281   4.809350   8.428830   8.782059   6.986557
    13  H    7.097982   5.606430   8.220925   9.275700   7.468590
    14  H    6.345307   5.702257   7.558612   8.533140   6.187148
    15  C    3.948396   6.083332   4.372419   6.348672   3.826292
    16  H    4.819760   6.410823   5.057585   7.254767   4.920707
    17  H    3.178966   5.935807   3.323449   5.591092   3.533175
    18  H    4.406312   6.972851   4.628342   6.685148   3.688665
    19  Pt   2.720168   2.748478   4.370073   4.461140   4.515199
    20  P    3.501783   3.540210   4.640244   4.139109   5.855908
    21  O    4.993966   3.959113   5.842937   5.728275   7.320127
    22  O    3.506619   5.093371   3.867553   3.755348   5.936370
    23  O    4.011838   3.389017   5.550924   3.800227   6.163947
    24  C    4.263575   6.220018   3.781919   4.791299   6.607676
    25  H    3.930853   6.758348   2.898982   4.544111   6.094863
    26  H    4.638610   6.087955   4.189112   5.580288   6.950872
    27  H    5.211338   6.949976   4.649549   5.355721   7.549946
    28  C    4.808784   4.702785   6.077123   3.861932   6.908830
    29  H    5.418585   4.740554   6.931140   4.255093   7.302125
    30  H    4.382349   5.337018   5.448631   3.065943   6.412818
    31  H    5.595303   5.310915   6.573011   4.771260   7.819214
    32  C    6.193277   4.865542   6.944249   6.515711   8.562696
    33  H    7.003349   5.426879   7.616175   7.527658   9.354516
    34  H    6.500791   4.530109   7.559267   6.600980   8.787291
    35  H    6.270657   5.677578   6.751229   6.334244   8.696009
    36  Sn   4.867664   4.472459   5.413283   6.816570   6.567635
    37  Cl   6.908992   4.600864   7.780331   8.590697   8.582203
    38  Cl   6.168457   6.343400   6.279048   8.463919   7.199032
    39  Cl   6.043450   6.424977   5.706767   7.665545   8.025977
    40  P    3.720316   3.529196   5.369497   5.801692   4.226472
    41  O    4.414232   3.454812   6.435224   6.075696   4.392512
    42  C    4.588185   4.513484   6.635023   6.000559   3.830724
    43  H    3.821819   4.583165   5.937840   5.025953   2.933094
    44  H    5.450783   4.653649   7.616683   6.579561   4.705727
    45  H    5.054555   5.458990   6.823142   6.657282   3.922770
                    6          7          8          9         10
     6  Cl   0.000000
     7  Cl   3.664741   0.000000
     8  Cl   3.745517   3.729135   0.000000
     9  O    7.398985   5.604000   6.076697   0.000000
    10  O    5.895381   3.693975   5.635158   2.599714   0.000000
    11  C    6.947911   4.122481   6.491420   3.159647   1.440203
    12  H    6.725059   3.495863   6.097295   3.821591   2.081781
    13  H    7.318509   4.618388   7.336713   3.955953   2.039668
    14  H    7.820194   5.010007   6.970480   2.726329   2.100397
    15  C    8.236921   6.770709   7.253195   1.436658   3.415150
    16  H    8.445285   6.857188   7.850578   2.091345   3.239976
    17  H    7.950907   6.994002   7.142713   2.102505   3.850672
    18  H    9.199637   7.620589   7.900635   2.037374   4.334964
    19  Pt   4.523616   4.519301   4.385826   3.450312   3.203139
    20  P    4.058425   5.788233   4.959062   5.700064   5.360222
    21  O    3.733344   5.859160   5.804410   6.584726   5.669418
    22  O    5.543532   7.369003   6.212442   6.407979   6.538125
    23  O    3.548239   5.807135   4.097859   6.519882   6.220394
    24  C    6.618866   8.336601   7.565656   6.883253   7.049647
    25  H    7.449522   8.857217   7.968962   6.668140   7.217575
    26  H    6.465945   8.001287   7.741509   6.656192   6.546476
    27  H    7.023976   9.112416   8.217107   7.975611   8.063131
    28  C    4.457164   7.098287   4.947538   7.777221   7.649534
    29  H    4.320231   7.043003   4.531512   8.249400   8.060173
    30  H    5.441381   7.776843   5.415349   7.730828   7.959208
    31  H    4.651766   7.630037   5.826285   8.496446   8.191540
    32  C    3.890374   6.706322   6.501185   8.010459   6.998757
    33  H    4.305472   6.971474   7.273960   8.463196   7.213532
    34  H    3.133564   6.354062   5.942676   8.317706   7.216211
    35  H    4.806034   7.674594   7.101834   8.510960   7.770335
    36  Sn   5.537652   5.395057   6.706057   4.399701   3.249147
    37  Cl   4.886700   4.727252   7.048816   6.078476   3.953958
    38  Cl   7.713366   6.604718   8.449857   4.301834   3.417740
    39  Cl   6.866417   7.615203   8.601497   6.449810   5.676839
    40  P    5.823931   4.104059   4.823663   1.615308   1.609054
    41  O    5.882409   3.617493   4.023615   2.475878   2.522082
    42  C    6.933273   4.763287   4.353874   2.888372   3.832039
    43  H    6.957209   5.342205   4.179646   3.089765   4.419325
    44  H    6.959626   4.597126   4.085910   3.933222   4.465348
    45  H    7.897279   5.516296   5.452222   2.661150   4.003238
                   11         12         13         14         15
    11  C    0.000000
    12  H    1.097482   0.000000
    13  H    1.095889   1.798700   0.000000
    14  H    1.098008   1.801440   1.792287   0.000000
    15  C    3.983951   4.860967   4.498850   3.486714   0.000000
    16  H    3.648203   4.660024   3.912255   3.190413   1.098403
    17  H    4.708915   5.569672   5.189704   4.391894   1.100814
    18  H    4.687708   5.511107   5.235595   3.983635   1.096754
    19  Pt   4.617873   5.031316   5.179931   5.024574   3.935819
    20  P    6.793772   7.149910   7.215801   7.303833   5.947137
    21  O    7.055637   7.410170   7.261124   7.731555   6.774160
    22  O    7.972493   8.448749   8.379533   8.347661   6.364015
    23  O    7.594026   7.750701   8.141977   8.121780   7.003651
    24  C    8.454188   9.070554   8.723540   8.789798   6.546429
    25  H    8.579240   9.261804   8.888938   8.780331   6.175462
    26  H    7.919952   8.584569   8.069688   8.310993   6.267181
    27  H    9.475670  10.064237   9.717577   9.851217   7.643859
    28  C    9.023610   9.170735   9.581924   9.520450   8.191744
    29  H    9.372502   9.396305   9.986189   9.890984   8.814513
    30  H    9.339824   9.555888   9.943629   9.724865   8.042085
    31  H    9.587925   9.771865  10.047941  10.145905   8.817036
    32  C    8.349708   8.632592   8.509339   9.084043   8.209073
    33  H    8.498115   8.805565   8.518662   9.290948   8.602126
    34  H    8.530613   8.677206   8.756913   9.308716   8.688095
    35  H    9.160715   9.500050   9.349546   9.822689   8.597975
    36  Sn   4.474547   5.196390   4.430011   5.039696   4.306246
    37  Cl   4.819340   5.212386   4.471183   5.738912   6.312191
    38  Cl   3.985691   4.993903   3.569305   4.241174   3.787443
    39  Cl   6.819410   7.601058   6.612778   7.305942   5.951020
    40  P    2.689129   3.139439   3.529717   2.846614   2.723600
    41  O    3.043455   2.954360   4.094351   3.138415   3.883271
    42  C    4.119326   3.982087   5.210199   3.892205   4.258854
    43  H    4.951184   4.932474   6.015294   4.725139   4.293051
    44  H    4.600496   4.201745   5.687805   4.471788   5.328764
    45  H    4.018736   3.995183   5.082563   3.509284   3.929267
                   16         17         18         19         20
    16  H    0.000000
    17  H    1.792359   0.000000
    18  H    1.804354   1.790179   0.000000
    19  Pt   4.331058   3.468214   4.880654   0.000000
    20  P    6.316353   5.204234   6.843784   2.333115   0.000000
    21  O    6.904836   6.098513   7.771645   3.250025   1.613090
    22  O    6.794788   5.427666   7.137471   3.450029   1.615328
    23  O    7.506559   6.330009   7.823447   3.256084   1.607267
    24  C    6.836544   5.535634   7.300028   4.257036   2.740510
    25  H    6.534371   5.103986   6.805158   4.510508   3.425381
    26  H    6.388254   5.319665   7.106690   4.083369   2.837926
    27  H    7.920858   6.626089   8.384623   5.234418   3.417852
    28  C    8.751955   7.435805   8.941999   4.614877   2.730234
    29  H    9.412561   8.138931   9.542754   5.191107   3.576633
    30  H    8.686796   7.217736   8.696334   4.811307   3.061445
    31  H    9.285975   8.018637   9.618027   5.193242   3.022211
    32  C    8.329477   7.509101   9.199170   4.632902   2.708097
    33  H    8.586181   7.948069   9.631389   5.221302   3.571096
    34  H    8.867337   8.051566   9.672374   4.895459   3.048642
    35  H    8.777504   7.793446   9.533666   5.152734   2.969571
    36  Sn   4.006742   3.939556   5.387381   2.732853   3.670569
    37  Cl   5.871598   6.188119   7.397731   4.315235   4.894806
    38  Cl   2.921266   3.852024   4.693901   4.565094   5.997365
    39  Cl   5.598235   5.308670   6.908827   4.569340   4.359594
    40  P    3.088255   2.978836   3.577015   2.330261   4.659796
    41  O    4.370981   4.280883   4.453530   3.364519   5.516873
    42  C    4.957556   4.702583   4.500605   4.357259   6.392836
    43  H    5.160468   4.518202   4.478359   4.158514   5.990352
    44  H    5.970853   5.786060   5.563953   5.083990   6.989628
    45  H    4.594016   4.571987   3.961685   4.988977   7.144353
                   21         22         23         24         25
    21  O    0.000000
    22  O    2.586221   0.000000
    23  O    2.620373   2.475970   0.000000
    24  C    3.138684   1.446409   3.864321   0.000000
    25  H    4.090310   2.066435   4.517180   1.098146   0.000000
    26  H    2.797906   2.115816   4.232016   1.098080   1.796595
    27  H    3.566912   2.064001   4.272067   1.100607   1.803492
    28  C    3.544163   2.850989   1.443708   4.152749   4.789661
    29  H    4.326729   3.914304   2.036104   5.243867   5.858281
    30  H    4.147787   2.685994   2.087344   3.933495   4.354974
    31  H    3.372755   2.966546   2.109048   4.018138   4.809702
    32  C    1.439542   3.284716   3.114171   3.727218   4.801715
    33  H    2.039797   4.144070   4.155079   4.309402   5.384999
    34  H    2.083259   3.851053   2.911165   4.572021   5.612271
    35  H    2.105223   2.977170   3.305661   3.254510   4.339404
    36  Sn   3.420648   4.514134   5.103001   4.537664   4.896894
    37  Cl   3.991879   6.080214   5.975253   6.241360   6.880579
    38  Cl   5.864560   6.630603   7.428706   6.408336   6.462945
    39  Cl   3.675931   4.499304   5.919387   3.798591   4.218344
    40  P    5.412535   5.696242   5.383436   6.360254   6.400125
    41  O    6.366438   6.659365   5.821694   7.544008   7.612126
    42  C    7.454505   7.357719   6.523747   8.291090   8.224098
    43  H    7.227988   6.790418   6.027737   7.766850   7.634168
    44  H    8.002760   8.053538   6.921031   9.084582   9.089585
    45  H    8.184862   8.018399   7.429575   8.825044   8.660832
                   26         27         28         29         30
    26  H    0.000000
    27  H    1.797929   0.000000
    28  C    4.770325   4.232834   0.000000
    29  H    5.833548   5.318236   1.096110   0.000000
    30  H    4.745067   4.012661   1.096167   1.796186   0.000000
    31  H    4.585046   3.851819   1.098189   1.791345   1.800835
    32  C    3.512001   3.732116   3.545098   4.236281   4.299014
    33  H    3.856264   4.276783   4.638698   5.294027   5.387272
    34  H    4.485271   4.576181   3.251270   3.683010   4.197431
    35  H    3.257940   2.976508   3.348149   4.160667   3.929955
    36  Sn   3.730566   5.442519   6.380481   7.127712   6.694427
    37  Cl   5.377109   6.915940   7.246891   7.798812   7.873164
    38  Cl   5.566380   7.349945   8.716977   9.463865   8.912212
    39  Cl   2.711116   4.397645   6.842631   7.783878   7.067488
    40  P    6.087511   7.406280   6.741583   7.143918   6.891441
    41  O    7.396320   8.543699   7.116830   7.286343   7.302155
    42  C    8.287990   9.287889   7.673856   7.763192   7.710106
    43  H    7.896785   8.735156   7.059569   7.158224   6.974421
    44  H    9.099761  10.041236   8.027928   7.972733   8.138044
    45  H    8.775128   9.862900   8.593317   8.750448   8.570385
                   31         32         33         34         35
    31  H    0.000000
    32  C    2.967541   0.000000
    33  H    4.016128   1.097169   0.000000
    34  H    2.710845   1.099742   1.796502   0.000000
    35  H    2.561958   1.101144   1.794748   1.809071   0.000000
    36  Sn   6.549201   4.712886   4.731985   5.343809   5.336709
    37  Cl   7.253297   4.829329   4.459285   5.212489   5.758436
    38  Cl   8.945138   7.116601   7.010064   7.782022   7.691249
    39  Cl   6.667529   4.515731   4.259830   5.491552   4.787265
    40  P    7.427818   6.795771   7.239924   6.988052   7.421050
    41  O    7.930347   7.644081   8.169047   7.622297   8.310483
    42  C    8.596600   8.715139   9.339202   8.660350   9.286064
    43  H    8.032283   8.463455   9.183898   8.419665   8.922969
    44  H    8.973140   9.180034   9.811254   9.002229   9.798472
    45  H    9.498648   9.505179  10.082289   9.533905  10.063714
                   36         37         38         39         40
    36  Sn   0.000000
    37  Cl   2.449628   0.000000
    38  Cl   2.460085   3.725274   0.000000
    39  Cl   2.459428   3.708182   3.657625   0.000000
    40  P    3.578152   4.904387   4.191017   5.886322   0.000000
    41  O    5.033198   5.949946   5.672176   7.385881   1.610120
    42  C    6.276864   7.373679   6.785561   8.534977   2.734254
    43  H    6.382924   7.712428   7.098842   8.477613   3.030697
    44  H    7.046883   7.874757   7.638455   9.359057   3.581991
    45  H    6.612094   7.809658   6.727403   8.850819   3.058074
                   41         42         43         44         45
    41  O    0.000000
    42  C    1.443844   0.000000
    43  H    2.105473   1.099066   0.000000
    44  H    2.037164   1.097207   1.796175   0.000000
    45  H    2.095021   1.100003   1.798800   1.802986   0.000000
 Stoichiometry    C6H18Cl9O6P2PtSn3(1-)
 Framework group  C1[X(C6H18Cl9O6P2PtSn3)]
 Deg. of freedom   129
 Full point group                 C1      NOp   1
 Largest Abelian subgroup         C1      NOp   1
 Largest concise Abelian subgroup C1      NOp   1
                         Standard orientation:                         
 ---------------------------------------------------------------------
 Center     Atomic      Atomic             Coordinates (Angstroms)
 Number     Number       Type             X           Y           Z
 ---------------------------------------------------------------------
      1         50           0       -2.815316   -0.194548   -0.203955
      2         50           0        1.306117    2.323906   -0.058441
      3         17           0       -3.774222   -2.352205    0.455228
      4         17           0       -4.186356    1.313114    1.137325
      5         17           0       -4.006990    0.060749   -2.321565
      6         17           0        2.514772    3.070762    1.935972
      7         17           0        3.116394    2.698366   -1.659817
      8         17           0       -0.033429    4.326681   -0.504978
      9          8           0       -0.739351   -1.024047   -3.297402
     10          8           0        1.732318   -0.589522   -2.618762
     11          6           0        2.335465   -0.656409   -3.924873
     12          1           0        2.715615    0.334568   -4.204005
     13          1           0        3.163216   -1.370137   -3.844902
     14          1           0        1.614536   -1.011896   -4.672879
     15          6           0       -1.146858   -2.377378   -3.039679
     16          1           0       -0.294360   -3.061857   -3.145622
     17          1           0       -1.569786   -2.480416   -2.028587
     18          1           0       -1.922753   -2.611106   -3.778751
     19         78           0       -0.103990   -0.035269   -0.053440
     20         15           0       -0.353848    0.217401    2.252456
     21          8           0        1.022520   -0.184542    2.991450
     22          8           0       -1.537767   -0.546267    3.042665
     23          8           0       -0.707753    1.745037    2.605143
     24          6           0       -1.543308   -1.925257    3.479075
     25          1           0       -2.400439   -2.423681    3.007033
     26          1           0       -0.614840   -2.443287    3.204532
     27          1           0       -1.658801   -1.925278    4.573606
     28          6           0       -1.474168    2.219143    3.733027
     29          1           0       -1.427732    3.313255    3.685903
     30          1           0       -2.513661    1.883156    3.642749
     31          1           0       -1.043794    1.875547    4.683153
     32          6           0        1.389002    0.214321    4.325197
     33          1           0        2.309766   -0.331130    4.566976
     34          1           0        1.582841    1.296665    4.344977
     35          1           0        0.604131   -0.051398    5.050379
     36         50           0        1.630154   -2.126673    0.241952
     37         17           0        3.946147   -1.393520    0.557137
     38         17           0        2.007888   -3.810960   -1.510906
     39         17           0        1.512753   -3.719870    2.111906
     40         15           0        0.215482   -0.118991   -2.360179
     41          8           0        0.130755    1.288395   -3.137722
     42          6           0       -0.980412    1.787698   -3.912764
     43          1           0       -1.893843    1.841919   -3.303953
     44          1           0       -0.690039    2.795295   -4.235713
     45          1           0       -1.153474    1.142235   -4.786511
 ---------------------------------------------------------------------
 Rotational constants (GHZ):      0.0689020      0.0630358      0.0566107
 Leave Link  202 at Sun Jul  5 03:03:16 2020, MaxMem=13421772800 cpu:       1.6
 (Enter /home/scr/programs/g09/l301.exe)
 General basis read from cards:  (5D, 7F)
 Centers:  12 13 14 16 17 18 25 26 27 29 30 31 33 34 35 43 44 45
 S 5 1.00
     Exponent=  2.8295215633D+02 Coefficients=  4.3000000000D-04
     Exponent=  8.7062201949D+01 Coefficients=  5.1000000000D-04
     Exponent=  2.6788369830D+01 Coefficients=  6.1600000000D-03
     Exponent=  8.2425753324D+00 Coefficients=  1.3030000000D-02
     Exponent=  2.5361770254D+00 Coefficients=  9.9490000000D-02
 S 1 1.00
     Exponent=  7.8036216165D-01 Coefficients=  1.0000000000D+00
 S 1 1.00
     Exponent=  2.4011143435D-01 Coefficients=  1.0000000000D+00
 P 1 1.00
     Exponent=  8.8150000000D-01 Coefficients=  1.0000000000D+00
 P 1 1.00
     Exponent=  1.7989200000D-01 Coefficients=  1.0000000000D+00
 ****
 Centers:  11 15 24 28 32 42
 S 6 1.00
     Exponent=  8.8461235339D+03 Coefficients=  5.3000000000D-04
     Exponent=  2.9487078446D+03 Coefficients=  7.7000000000D-04
     Exponent=  9.8290261488D+02 Coefficients=  4.0500000000D-03
     Exponent=  3.2763420496D+02 Coefficients=  1.4030000000D-02
     Exponent=  1.0921140165D+02 Coefficients=  5.3450000000D-02
     Exponent=  3.6403800551D+01 Coefficients=  1.7027000000D-01
 S 1 1.00
     Exponent=  1.2134600184D+01 Coefficients=  1.0000000000D+00
 S 1 1.00
     Exponent=  4.0448667279D+00 Coefficients=  1.0000000000D+00
 S 1 1.00
     Exponent=  1.3482889093D+00 Coefficients=  1.0000000000D+00
 S 1 1.00
     Exponent=  4.4942963643D-01 Coefficients=  1.0000000000D+00
 S 1 1.00
     Exponent=  1.4980987881D-01 Coefficients=  1.0000000000D+00
 P 4 1.00
     Exponent=  3.7294093393D+01 Coefficients=  3.9600000000D-03
     Exponent=  1.1475105659D+01 Coefficients=  1.8890000000D-02
     Exponent=  3.5308017414D+00 Coefficients=  9.4610000000D-02
     Exponent=  1.0864005358D+00 Coefficients=  3.1889000000D-01
 P 1 1.00
     Exponent=  3.3427708794D-01 Coefficients=  1.0000000000D+00
 P 1 1.00
     Exponent=  1.0285448860D-01 Coefficients=  1.0000000000D+00
 D 1 1.00
     Exponent=  4.7750000000D-01 Coefficients=  1.0000000000D+00
 D 1 1.00
     Exponent=  1.1998000000D-01 Coefficients=  1.0000000000D+00
 ****
 Centers:   9 10 21 22 23 41
 S 6 1.00
     Exponent=  1.6178118231D+04 Coefficients=  6.0000000000D-04
     Exponent=  5.3927060771D+03 Coefficients=  7.8000000000D-04
     Exponent=  1.7975686924D+03 Coefficients=  4.1000000000D-03
     Exponent=  5.9918956413D+02 Coefficients=  1.3880000000D-02
     Exponent=  1.9972985471D+02 Coefficients=  5.2770000000D-02
     Exponent=  6.6576618236D+01 Coefficients=  1.6924000000D-01
 S 1 1.00
     Exponent=  2.2192206079D+01 Coefficients=  1.0000000000D+00
 S 1 1.00
     Exponent=  7.3974020263D+00 Coefficients=  1.0000000000D+00
 S 1 1.00
     Exponent=  2.4658006754D+00 Coefficients=  1.0000000000D+00
 S 1 1.00
     Exponent=  8.2193355847D-01 Coefficients=  1.0000000000D+00
 S 1 1.00
     Exponent=  2.7397785282D-01 Coefficients=  1.0000000000D+00
 P 4 1.00
     Exponent=  7.3854398670D+01 Coefficients=  4.0200000000D-03
     Exponent=  2.2724430360D+01 Coefficients=  2.0130000000D-02
     Exponent=  6.9921324184D+00 Coefficients=  1.0470000000D-01
     Exponent=  2.1514253595D+00 Coefficients=  3.3605000000D-01
 P 1 1.00
     Exponent=  6.6197703370D-01 Coefficients=  1.0000000000D+00
 P 1 1.00
     Exponent=  2.0368524114D-01 Coefficients=  1.0000000000D+00
 D 1 1.00
     Exponent=  9.2880000000D-01 Coefficients=  1.0000000000D+00
 D 1 1.00
     Exponent=  2.2975000000D-01 Coefficients=  1.0000000000D+00
 ****
 Centers:  20 40
 S 7 1.00
     Exponent=  5.9538004301D+04 Coefficients=  9.5000000000D-04
     Exponent=  2.1650183382D+04 Coefficients=  6.1000000000D-04
     Exponent=  7.8727939572D+03 Coefficients=  3.7500000000D-03
     Exponent=  2.8628341663D+03 Coefficients=  9.6300000000D-03
     Exponent=  1.0410306059D+03 Coefficients=  3.2430000000D-02
     Exponent=  3.7855658397D+02 Coefficients=  9.9500000000D-02
     Exponent=  1.3765693962D+02 Coefficients=  2.6570000000D-01
 S 1 1.00
     Exponent=  5.0057068954D+01 Coefficients=  1.0000000000D+00
 S 1 1.00
     Exponent=  1.8202570529D+01 Coefficients=  1.0000000000D+00
 S 1 1.00
     Exponent=  6.6191165560D+00 Coefficients=  1.0000000000D+00
 S 1 1.00
     Exponent=  2.4069514749D+00 Coefficients=  1.0000000000D+00
 S 1 1.00
     Exponent=  8.7525508178D-01 Coefficients=  1.0000000000D+00
 S 1 1.00
     Exponent=  3.1827457519D-01 Coefficients=  1.0000000000D+00
 S 1 1.00
     Exponent=  1.1573620916D-01 Coefficients=  1.0000000000D+00
 S 1 1.00
     Exponent=  4.2085894240D-02 Coefficients=  1.0000000000D+00
 P 5 1.00
     Exponent=  4.8799672315D+02 Coefficients=  2.1600000000D-03
     Exponent=  1.6266557438D+02 Coefficients=  9.7900000000D-03
     Exponent=  5.4221858128D+01 Coefficients=  5.4850000000D-02
     Exponent=  1.8073952709D+01 Coefficients=  2.1770000000D-01
     Exponent=  6.0246509031D+00 Coefficients=  4.8978000000D-01
 P 1 1.00
     Exponent=  2.0082169677D+00 Coefficients=  1.0000000000D+00
 P 1 1.00
     Exponent=  6.6940565590D-01 Coefficients=  1.0000000000D+00
 P 1 1.00
     Exponent=  2.2313521863D-01 Coefficients=  1.0000000000D+00
 P 1 1.00
     Exponent=  7.4378406211D-02 Coefficients=  1.0000000000D+00
 P 1 1.00
     Exponent=  2.4792802070D-02 Coefficients=  1.0000000000D+00
 D 1 1.00
     Exponent=  3.5395000000D-01 Coefficients=  1.0000000000D+00
 D 1 1.00
     Exponent=  8.9098000000D-02 Coefficients=  1.0000000000D+00
 ****
 Centers:   3  4  5  6  7  8 37 38 39
 S 7 1.00
     Exponent=  7.7142817164D+04 Coefficients=  1.0600000000D-03
     Exponent=  2.8051933514D+04 Coefficients=  6.4000000000D-04
     Exponent=  1.0200703096D+04 Coefficients=  3.9600000000D-03
     Exponent=  3.7093465804D+03 Coefficients=  9.8300000000D-03
     Exponent=  1.3488533020D+03 Coefficients=  3.2690000000D-02
     Exponent=  4.9049210981D+02 Coefficients=  9.9520000000D-02
     Exponent=  1.7836076720D+02 Coefficients=  2.6555000000D-01
 S 1 1.00
     Exponent=  6.4858460801D+01 Coefficients=  1.0000000000D+00
 S 1 1.00
     Exponent=  2.3584894837D+01 Coefficients=  1.0000000000D+00
 S 1 1.00
     Exponent=  8.5763253951D+00 Coefficients=  1.0000000000D+00
 S 1 1.00
     Exponent=  3.1186637801D+00 Coefficients=  1.0000000000D+00
 S 1 1.00
     Exponent=  1.1340595564D+00 Coefficients=  1.0000000000D+00
 S 1 1.00
     Exponent=  4.1238529323D-01 Coefficients=  1.0000000000D+00
 S 1 1.00
     Exponent=  1.4995828845D-01 Coefficients=  1.0000000000D+00
 S 1 1.00
     Exponent=  5.4530286708D-02 Coefficients=  1.0000000000D+00
 P 5 1.00
     Exponent=  6.9498536057D+02 Coefficients=  2.0000000000D-03
     Exponent=  2.3166178686D+02 Coefficients=  8.9500000000D-03
     Exponent=  7.7220595619D+01 Coefficients=  5.1130000000D-02
     Exponent=  2.5740198540D+01 Coefficients=  2.1011000000D-01
     Exponent=  8.5800661799D+00 Coefficients=  4.9738000000D-01
 P 1 1.00
     Exponent=  2.8600220600D+00 Coefficients=  1.0000000000D+00
 P 1 1.00
     Exponent=  9.5334068665D-01 Coefficients=  1.0000000000D+00
 P 1 1.00
     Exponent=  3.1778022888D-01 Coefficients=  1.0000000000D+00
 P 1 1.00
     Exponent=  1.0592674296D-01 Coefficients=  1.0000000000D+00
 P 1 1.00
     Exponent=  3.5308914320D-02 Coefficients=  1.0000000000D+00
 D 1 1.00
     Exponent=  5.5696000000D-01 Coefficients=  1.0000000000D+00
 D 1 1.00
     Exponent=  1.5619100000D-01 Coefficients=  1.0000000000D+00
 ****
 Centers:   1  2 36
 S 8 1.00
     Exponent=  7.5448214551D+05 Coefficients=  4.4300000000D-03
     Exponent=  3.3532539800D+05 Coefficients=  1.9800000000D-03
     Exponent=  1.4903351022D+05 Coefficients=  9.0500000000D-03
     Exponent=  6.6237115655D+04 Coefficients=  4.8700000000D-03
     Exponent=  2.9438718069D+04 Coefficients=  2.0770000000D-02
     Exponent=  1.3083874697D+04 Coefficients=  3.2900000000D-02
     Exponent=  5.8150554210D+03 Coefficients=  7.7010000000D-02
     Exponent=  2.5844690760D+03 Coefficients=  1.5160000000D-01
 S 1 1.00
     Exponent=  1.1486529227D+03 Coefficients=  1.0000000000D+00
 S 1 1.00
     Exponent=  5.1051241008D+02 Coefficients=  1.0000000000D+00
 S 1 1.00
     Exponent=  2.2689440448D+02 Coefficients=  1.0000000000D+00
 S 1 1.00
     Exponent=  1.0084195755D+02 Coefficients=  1.0000000000D+00
 S 1 1.00
     Exponent=  4.4818647798D+01 Coefficients=  1.0000000000D+00
 S 1 1.00
     Exponent=  1.9919399021D+01 Coefficients=  1.0000000000D+00
 S 1 1.00
     Exponent=  8.8530662317D+00 Coefficients=  1.0000000000D+00
 S 1 1.00
     Exponent=  3.9346961030D+00 Coefficients=  1.0000000000D+00
 S 1 1.00
     Exponent=  1.7487538235D+00 Coefficients=  1.0000000000D+00
 S 1 1.00
     Exponent=  7.7722392158D-01 Coefficients=  1.0000000000D+00
 S 1 1.00
     Exponent=  3.4543285403D-01 Coefficients=  1.0000000000D+00
 S 1 1.00
     Exponent=  1.5352571290D-01 Coefficients=  1.0000000000D+00
 S 1 1.00
     Exponent=  6.8233650180D-02 Coefficients=  1.0000000000D+00
 S 1 1.00
     Exponent=  1.3478251887D-02 Coefficients=  1.0000000000D+00
 P 5 1.00
     Exponent=  1.0090658304D+04 Coefficients=  2.7500000000D-03
     Exponent=  4.0362633217D+03 Coefficients=  4.1800000000D-03
     Exponent=  1.6145053287D+03 Coefficients=  2.0890000000D-02
     Exponent=  6.4580213147D+02 Coefficients=  7.1370000000D-02
     Exponent=  2.5832085259D+02 Coefficients=  2.2613000000D-01
 P 1 1.00
     Exponent=  1.0332834104D+02 Coefficients=  1.0000000000D+00
 P 1 1.00
     Exponent=  4.1331336414D+01 Coefficients=  1.0000000000D+00
 P 1 1.00
     Exponent=  1.6532534566D+01 Coefficients=  1.0000000000D+00
 P 1 1.00
     Exponent=  6.6130138263D+00 Coefficients=  1.0000000000D+00
 P 1 1.00
     Exponent=  2.6452055305D+00 Coefficients=  1.0000000000D+00
 P 1 1.00
     Exponent=  1.0580822122D+00 Coefficients=  1.0000000000D+00
 P 1 1.00
     Exponent=  4.2323288488D-01 Coefficients=  1.0000000000D+00
 P 1 1.00
     Exponent=  1.6929315395D-01 Coefficients=  1.0000000000D+00
 P 1 1.00
     Exponent=  6.7717261581D-02 Coefficients=  1.0000000000D+00
 P 1 1.00
     Exponent=  2.7086904632D-02 Coefficients=  1.0000000000D+00
 P 1 1.00
     Exponent=  1.0834761853D-02 Coefficients=  1.0000000000D+00
 D 4 1.00
     Exponent=  5.5430250651D+02 Coefficients=  4.3700000000D-03
     Exponent=  2.0156454782D+02 Coefficients=  2.5110000000D-02
     Exponent=  7.3296199207D+01 Coefficients=  1.3316000000D-01
     Exponent=  2.6653163348D+01 Coefficients=  3.8900000000D-01
 D 1 1.00
     Exponent=  9.6920593993D+00 Coefficients=  1.0000000000D+00
 D 1 1.00
     Exponent=  3.5243852361D+00 Coefficients=  1.0000000000D+00
 D 1 1.00
     Exponent=  1.2815946313D+00 Coefficients=  1.0000000000D+00
 D 1 1.00
     Exponent=  4.6603441139D-01 Coefficients=  1.0000000000D+00
 D 1 1.00
     Exponent=  1.6946705869D-01 Coefficients=  1.0000000000D+00
 F 1 1.00
     Exponent=  1.3140000000D+00 Coefficients=  1.0000000000D+00
 F 1 1.00
     Exponent=  1.9993000000D-01 Coefficients=  1.0000000000D+00
 ****
 Centers:  19
 S 9 1.00
     Exponent=  2.1644816090D+06 Coefficients=  1.2320000000D-02
     Exponent=  1.0822408045D+06 Coefficients=  1.2970000000D-02
     Exponent=  5.4112040224D+05 Coefficients=  2.6370000000D-02
     Exponent=  2.7056020112D+05 Coefficients=  9.0400000000D-03
     Exponent=  1.3528010056D+05 Coefficients=  3.4980000000D-02
     Exponent=  6.7640050280D+04 Coefficients=  1.2220000000D-02
     Exponent=  3.3820025140D+04 Coefficients=  6.0520000000D-02
     Exponent=  1.6910012570D+04 Coefficients=  6.4930000000D-02
     Exponent=  8.4550062850D+03 Coefficients=  1.3819000000D-01
 S 1 1.00
     Exponent=  4.2275031425D+03 Coefficients=  1.0000000000D+00
 S 1 1.00
     Exponent=  2.1137515713D+03 Coefficients=  1.0000000000D+00
 S 1 1.00
     Exponent=  1.0568757856D+03 Coefficients=  1.0000000000D+00
 S 1 1.00
     Exponent=  5.2843789281D+02 Coefficients=  1.0000000000D+00
 S 1 1.00
     Exponent=  2.6421894641D+02 Coefficients=  1.0000000000D+00
 S 1 1.00
     Exponent=  1.3210947320D+02 Coefficients=  1.0000000000D+00
 S 1 1.00
     Exponent=  6.6054736602D+01 Coefficients=  1.0000000000D+00
 S 1 1.00
     Exponent=  3.3027368301D+01 Coefficients=  1.0000000000D+00
 S 1 1.00
     Exponent=  1.6513684150D+01 Coefficients=  1.0000000000D+00
 S 1 1.00
     Exponent=  8.2568420752D+00 Coefficients=  1.0000000000D+00
 S 1 1.00
     Exponent=  4.1284210376D+00 Coefficients=  1.0000000000D+00
 S 1 1.00
     Exponent=  2.0642105188D+00 Coefficients=  1.0000000000D+00
 S 1 1.00
     Exponent=  1.0321052594D+00 Coefficients=  1.0000000000D+00
 S 1 1.00
     Exponent=  5.1605262970D-01 Coefficients=  1.0000000000D+00
 S 1 1.00
     Exponent=  2.5802631485D-01 Coefficients=  1.0000000000D+00
 S 1 1.00
     Exponent=  1.2901315743D-01 Coefficients=  1.0000000000D+00
 S 1 1.00
     Exponent=  6.4506578713D-02 Coefficients=  1.0000000000D+00
 P 7 1.00
     Exponent=  3.2357915258D+04 Coefficients=  5.0200000000D-03
     Exponent=  1.4381295670D+04 Coefficients=  2.0200000000D-03
     Exponent=  6.3916869645D+03 Coefficients=  1.8070000000D-02
     Exponent=  2.8407497620D+03 Coefficients=  3.6620000000D-02
     Exponent=  1.2625554498D+03 Coefficients=  1.1172000000D-01
     Exponent=  5.6113575545D+02 Coefficients=  2.5586000000D-01
     Exponent=  2.4939366909D+02 Coefficients=  4.2608000000D-01
 P 1 1.00
     Exponent=  1.1084163071D+02 Coefficients=  1.0000000000D+00
 P 1 1.00
     Exponent=  4.9262946981D+01 Coefficients=  1.0000000000D+00
 P 1 1.00
     Exponent=  2.1894643103D+01 Coefficients=  1.0000000000D+00
 P 1 1.00
     Exponent=  9.7309524900D+00 Coefficients=  1.0000000000D+00
 P 1 1.00
     Exponent=  4.3248677733D+00 Coefficients=  1.0000000000D+00
 P 1 1.00
     Exponent=  1.9221634548D+00 Coefficients=  1.0000000000D+00
 P 1 1.00
     Exponent=  8.5429486881D-01 Coefficients=  1.0000000000D+00
 P 1 1.00
     Exponent=  3.7968660836D-01 Coefficients=  1.0000000000D+00
 P 1 1.00
     Exponent=  1.6874960372D-01 Coefficients=  1.0000000000D+00
 P 1 1.00
     Exponent=  7.4999823874D-02 Coefficients=  1.0000000000D+00
 P 1 1.00
     Exponent=  3.3333255055D-02 Coefficients=  1.0000000000D+00
 D 5 1.00
     Exponent=  1.9119003508D+03 Coefficients=  4.3300000000D-03
     Exponent=  7.6476014031D+02 Coefficients=  1.7780000000D-02
     Exponent=  3.0590405613D+02 Coefficients=  8.9710000000D-02
     Exponent=  1.2236162245D+02 Coefficients=  3.1123000000D-01
     Exponent=  4.8944648980D+01 Coefficients=  5.3206000000D-01
 D 1 1.00
     Exponent=  1.9577859592D+01 Coefficients=  1.0000000000D+00
 D 1 1.00
     Exponent=  7.8311438368D+00 Coefficients=  1.0000000000D+00
 D 1 1.00
     Exponent=  3.1324575347D+00 Coefficients=  1.0000000000D+00
 D 1 1.00
     Exponent=  1.2529830139D+00 Coefficients=  1.0000000000D+00
 D 1 1.00
     Exponent=  5.0119320556D-01 Coefficients=  1.0000000000D+00
 D 1 1.00
     Exponent=  2.0047728222D-01 Coefficients=  1.0000000000D+00
 D 1 1.00
     Exponent=  8.0190912889D-02 Coefficients=  1.0000000000D+00
 D 1 1.00
     Exponent=  3.2076365156D-02 Coefficients=  1.0000000000D+00
 F 4 1.00
     Exponent=  8.2289680979D+01 Coefficients=  6.1870000000D-02
     Exponent=  2.9923520356D+01 Coefficients=  2.4823000000D-01
     Exponent=  1.0881280130D+01 Coefficients=  4.9956000000D-01
     Exponent=  3.9568291380D+00 Coefficients=  4.0380000000D-01
 F 1 1.00
     Exponent=  1.4388469593D+00 Coefficients=  1.0000000000D+00
 F 1 1.00
     Exponent=  5.2321707610D-01 Coefficients=  1.0000000000D+00
 G 1 1.00
     Exponent=  2.6700000000D+00 Coefficients=  1.0000000000D+00
 G 1 1.00
     Exponent=  9.0960000000D-01 Coefficients=  1.0000000000D+00
 ****
 Ernie: Thresh=  0.10000D-02 Tol=  0.10000D-05 Strict=F.
 There are  1292 symmetry adapted basis functions of A   symmetry.
 Integral buffers will be    131072 words long.
 Raffenetti 2 integral format.
 Two-electron integral symmetry is turned on.
  1292 basis functions,  2033 primitive gaussians,  1404 cartesian basis functions
   257 alpha electrons      257 beta electrons
       nuclear repulsion energy     15726.3497348241 Hartrees.
 IExCor= 1009 DFT=T Ex=PBE Corr=PBE ExCW=0 ScaHFX=  0.000000
 ScaDFX=  1.000000  1.000000  1.000000  1.000000 ScalE2=  1.000000  1.000000
 IRadAn=      0 IRanWt=     -1 IRanGd=            0 ICorTp=0
 NAtoms=   45 NActive=   45 NUniq=   45 SFac= 7.50D-01 NAtFMM=   80 NAOKFM=F Big=F
 ------------------------------------------------------------------------------
 Polarizable Continuum Model (PCM)
 =================================
 Model                : PCM.
 Atomic radii         : UFF (Universal Force Field).
 Polarization charges : Total charges.
 Charge compensation  : None.
 Solution method      : Matrix inversion.
 Cavity type          : Scaled VdW (van der Waals Surface) (Alpha=1.100).
 Cavity algorithm     : GePol (No added spheres)
                        Default sphere list used, NSphG=   45.
                        Lebedev-Laikov grids with approx.  5.0 points / Ang**2.
                        Smoothing algorithm: Karplus/York (Gamma=1.0000).
                        Polarization charges: spherical gaussians, with
                                              point-specific exponents (IZeta= 3).
                        Self-potential: point-specific (ISelfS= 7).
                        Self-field    : sphere-specific E.n sum rule (ISelfD= 2).
 Solvent              : Acetone, Eps=  20.493000 Eps(inf)=   1.846337
 ------------------------------------------------------------------------------
 GePol: Number of generator spheres                  =      45
 GePol: Total number of spheres                      =      45
 GePol: Number of exposed spheres                    =      45 (100.00%)
 GePol: Number of points                             =    4273
 GePol: Average weight of points                     =       0.15
 GePol: Minimum weight of points                     =   0.16D-09
 GePol: Maximum weight of points                     =    0.21616
 GePol: Number of points with low weight             =     249
 GePol: Fraction of low-weight points (<1% of avg)   =       5.83%
 GePol: Cavity surface area                          =    625.173 Ang**2
 GePol: Cavity volume                                =    747.094 Ang**3
 Leave Link  301 at Sun Jul  5 03:03:16 2020, MaxMem=13421772800 cpu:       5.8
 (Enter /home/scr/programs/g09/l302.exe)
 NPDir=0 NMtPBC=     1 NCelOv=     1 NCel=       1 NClECP=     1 NCelD=      1
         NCelK=      1 NCelE2=     1 NClLst=     1 CellRange=     0.0.
 One-electron integrals computed using PRISM.
 NBasis=  1292 RedAO= T  NBF=  1292
 NBsUse=  1292 1.00D-06 NBFU=  1292
 Precomputing XC quadrature grid using
 IXCGrd= 2 IRadAn=           0 IRanWt=          -1 IRanGd=           0 AccXCQ= 1.00D-10.
 Defaulting to unpruned grid for atomic number  50.
 Defaulting to unpruned grid for atomic number  78.
 Defaulting to unpruned grid for atomic number  50.
 NRdTot=    2973 NPtTot=      423838 NUsed=      445247 NTot=      445279
 NSgBfM=  1235  1235  1235  1235  1235 NAtAll=    45    45.
 Leave Link  302 at Sun Jul  5 03:03:24 2020, MaxMem=13421772800 cpu:     261.2
 (Enter /home/scr/programs/g09/l308.exe)
 Leave Link  308 at Sun Jul  5 03:03:27 2020, MaxMem=13421772800 cpu:     101.7
 (Enter /home/scr/programs/g09/l303.exe)
 DipDrv:  MaxL=1.
 Leave Link  303 at Sun Jul  5 03:03:29 2020, MaxMem=13421772800 cpu:      54.8
 (Enter /home/scr/programs/g09/l401.exe)
 Harris functional with IExCor= 1009 diagonalized for initial guess.
 ExpMin= 1.08D-02 ExpMax= 2.16D+06 ExpMxC= 2.16D+06 IAcc=4 IRadAn=         0 AccDes= 0.00D+00
 HarFok:  IExCor= 1009 AccDes= 0.00D+00 IRadAn=         0 IDoV= 1
 ScaDFX=  1.000000  1.000000  1.000000  1.000000
 Defaulting to unpruned grid for atomic number  50.
 Defaulting to unpruned grid for atomic number  50.
 Defaulting to unpruned grid for atomic number  50.
 Defaulting to unpruned grid for atomic number  50.
 Defaulting to unpruned grid for atomic number  50.
 Defaulting to unpruned grid for atomic number  50.
 Defaulting to unpruned grid for atomic number  50.
 Defaulting to unpruned grid for atomic number  50.
 Defaulting to unpruned grid for atomic number  50.
 Defaulting to unpruned grid for atomic number  50.
 Defaulting to unpruned grid for atomic number  50.
 Defaulting to unpruned grid for atomic number  50.
 Defaulting to unpruned grid for atomic number  50.
 Defaulting to unpruned grid for atomic number  50.
 Defaulting to unpruned grid for atomic number  50.
 Defaulting to unpruned grid for atomic number  50.
 Defaulting to unpruned grid for atomic number  50.
 Defaulting to unpruned grid for atomic number  50.
 Defaulting to unpruned grid for atomic number  50.
 Defaulting to unpruned grid for atomic number  50.
 Defaulting to unpruned grid for atomic number  50.
 Defaulting to unpruned grid for atomic number  50.
 Defaulting to unpruned grid for atomic number  50.
 Defaulting to unpruned grid for atomic number  50.
 Defaulting to unpruned grid for atomic number  50.
 Defaulting to unpruned grid for atomic number  50.
 Defaulting to unpruned grid for atomic number  50.
 Defaulting to unpruned grid for atomic number  50.
 Defaulting to unpruned grid for atomic number  50.
 Defaulting to unpruned grid for atomic number  50.
 Defaulting to unpruned grid for atomic number  50.
 Defaulting to unpruned grid for atomic number  50.
 FoFCou: FMM=F IPFlag=           0 FMFlag=      100000 FMFlg1=           0
         NFxFlg=           0 DoJE=T BraDBF=F KetDBF=T FulRan=T
         Omega=  0.000000  0.000000  1.000000  0.000000  0.000000 ICntrl=     500 IOpCl=  0
         NMat0=    1 NMatS0=    1 NMatT0=    0 NMatD0=    1 NMtDS0=    0 NMtDT0=    0
         I1Cent=           4 NGrid=           0.
 Petite list used in FoFCou.
 Harris En= -40581.8322705517    
 Initial guess orbital symmetries:
       Occupied  (A) (A) (A) (A) (A) (A) (A) (A) (A) (A) (A) (A)
                 (A) (A) (A) (A) (A) (A) (A) (A) (A) (A) (A) (A)
                 (A) (A) (A) (A) (A) (A) (A) (A) (A) (A) (A) (A)
                 (A) (A) (A) (A) (A) (A) (A) (A) (A) (A) (A) (A)
                 (A) (A) (A) (A) (A) (A) (A) (A) (A) (A) (A) (A)
                 (A) (A) (A) (A) (A) (A) (A) (A) (A) (A) (A) (A)
                 (A) (A) (A) (A) (A) (A) (A) (A) (A) (A) (A) (A)
                 (A) (A) (A) (A) (A) (A) (A) (A) (A) (A) (A) (A)
                 (A) (A) (A) (A) (A) (A) (A) (A) (A) (A) (A) (A)
                 (A) (A) (A) (A) (A) (A) (A) (A) (A) (A) (A) (A)
                 (A) (A) (A) (A) (A) (A) (A) (A) (A) (A) (A) (A)
                 (A) (A) (A) (A) (A) (A) (A) (A) (A) (A) (A) (A)
                 (A) (A) (A) (A) (A) (A) (A) (A) (A) (A) (A) (A)
                 (A) (A) (A) (A) (A) (A) (A) (A) (A) (A) (A) (A)
                 (A) (A) (A) (A) (A) (A) (A) (A) (A) (A) (A) (A)
                 (A) (A) (A) (A) (A) (A) (A) (A) (A) (A) (A) (A)
                 (A) (A) (A) (A) (A) (A) (A) (A) (A) (A) (A) (A)
                 (A) (A) (A) (A) (A) (A) (A) (A) (A) (A) (A) (A)
                 (A) (A) (A) (A) (A) (A) (A) (A) (A) (A) (A) (A)
                 (A) (A) (A) (A) (A) (A) (A) (A) (A) (A) (A) (A)
                 (A) (A) (A) (A) (A) (A) (A) (A) (A) (A) (A) (A)
                 (A) (A) (A) (A) (A)
       Virtual   (A) (A) (A) (A) (A) (A) (A) (A) (A) (A) (A) (A)
                 (A) (A) (A) (A) (A) (A) (A) (A) (A) (A) (A) (A)
                 (A) (A) (A) (A) (A) (A) (A) (A) (A) (A) (A) (A)
                 (A) (A) (A) (A) (A) (A) (A) (A) (A) (A) (A) (A)
                 (A) (A) (A) (A) (A) (A) (A) (A) (A) (A) (A) (A)
                 (A) (A) (A) (A) (A) (A) (A) (A) (A) (A) (A) (A)
                 (A) (A) (A) (A) (A) (A) (A) (A) (A) (A) (A) (A)
                 (A) (A) (A) (A) (A) (A) (A) (A) (A) (A) (A) (A)
                 (A) (A) (A) (A) (A) (A) (A) (A) (A) (A) (A) (A)
                 (A) (A) (A) (A) (A) (A) (A) (A) (A) (A) (A) (A)
                 (A) (A) (A) (A) (A) (A) (A) (A) (A) (A) (A) (A)
                 (A) (A) (A) (A) (A) (A) (A) (A) (A) (A) (A) (A)
                 (A) (A) (A) (A) (A) (A) (A) (A) (A) (A) (A) (A)
                 (A) (A) (A) (A) (A) (A) (A) (A) (A) (A) (A) (A)
                 (A) (A) (A) (A) (A) (A) (A) (A) (A) (A) (A) (A)
                 (A) (A) (A) (A) (A) (A) (A) (A) (A) (A) (A) (A)
                 (A) (A) (A) (A) (A) (A) (A) (A) (A) (A) (A) (A)
                 (A) (A) (A) (A) (A) (A) (A) (A) (A) (A) (A) (A)
                 (A) (A) (A) (A) (A) (A) (A) (A) (A) (A) (A) (A)
                 (A) (A) (A) (A) (A) (A) (A) (A) (A) (A) (A) (A)
                 (A) (A) (A) (A) (A) (A) (A) (A) (A) (A) (A) (A)
                 (A) (A) (A) (A) (A) (A) (A) (A) (A) (A) (A) (A)
                 (A) (A) (A) (A) (A) (A) (A) (A) (A) (A) (A) (A)
                 (A) (A) (A) (A) (A) (A) (A) (A) (A) (A) (A) (A)
                 (A) (A) (A) (A) (A) (A) (A) (A) (A) (A) (A) (A)
                 (A) (A) (A) (A) (A) (A) (A) (A) (A) (A) (A) (A)
                 (A) (A) (A) (A) (A) (A) (A) (A) (A) (A) (A) (A)
                 (A) (A) (A) (A) (A) (A) (A) (A) (A) (A) (A) (A)
                 (A) (A) (A) (A) (A) (A) (A) (A) (A) (A) (A) (A)
                 (A) (A) (A) (A) (A) (A) (A) (A) (A) (A) (A) (A)
                 (A) (A) (A) (A) (A) (A) (A) (A) (A) (A) (A) (A)
                 (A) (A) (A) (A) (A) (A) (A) (A) (A) (A) (A) (A)
                 (A) (A) (A) (A) (A) (A) (A) (A) (A) (A) (A) (A)
                 (A) (A) (A) (A) (A) (A) (A) (A) (A) (A) (A) (A)
                 (A) (A) (A) (A) (A) (A) (A) (A) (A) (A) (A) (A)
                 (A) (A) (A) (A) (A) (A) (A) (A) (A) (A) (A) (A)
                 (A) (A) (A) (A) (A) (A) (A) (A) (A) (A) (A) (A)
                 (A) (A) (A) (A) (A) (A) (A) (A) (A) (A) (A) (A)
                 (A) (A) (A) (A) (A) (A) (A) (A) (A) (A) (A) (A)
                 (A) (A) (A) (A) (A) (A) (A) (A) (A) (A) (A) (A)
                 (A) (A) (A) (A) (A) (A) (A) (A) (A) (A) (A) (A)
                 (A) (A) (A) (A) (A) (A) (A) (A) (A) (A) (A) (A)
                 (A) (A) (A) (A) (A) (A) (A) (A) (A) (A) (A) (A)
                 (A) (A) (A) (A) (A) (A) (A) (A) (A) (A) (A) (A)
                 (A) (A) (A) (A) (A) (A) (A) (A) (A) (A) (A) (A)
                 (A) (A) (A) (A) (A) (A) (A) (A) (A) (A) (A) (A)
                 (A) (A) (A) (A) (A) (A) (A) (A) (A) (A) (A) (A)
                 (A) (A) (A) (A) (A) (A) (A) (A) (A) (A) (A) (A)
                 (A) (A) (A) (A) (A) (A) (A) (A) (A) (A) (A) (A)
                 (A) (A) (A) (A) (A) (A) (A) (A) (A) (A) (A) (A)
                 (A) (A) (A) (A) (A) (A) (A) (A) (A) (A) (A) (A)
                 (A) (A) (A) (A) (A) (A) (A) (A) (A) (A) (A) (A)
                 (A) (A) (A) (A) (A) (A) (A) (A) (A) (A) (A) (A)
                 (A) (A) (A) (A) (A) (A) (A) (A) (A) (A) (A) (A)
                 (A) (A) (A) (A) (A) (A) (A) (A) (A) (A) (A) (A)
                 (A) (A) (A) (A) (A) (A) (A) (A) (A) (A) (A) (A)
                 (A) (A) (A) (A) (A) (A) (A) (A) (A) (A) (A) (A)
                 (A) (A) (A) (A) (A) (A) (A) (A) (A) (A) (A) (A)
                 (A) (A) (A) (A) (A) (A) (A) (A) (A) (A) (A) (A)
                 (A) (A) (A) (A) (A) (A) (A) (A) (A) (A) (A) (A)
                 (A) (A) (A) (A) (A) (A) (A) (A) (A) (A) (A) (A)
                 (A) (A) (A) (A) (A) (A) (A) (A) (A) (A) (A) (A)
                 (A) (A) (A) (A) (A) (A) (A) (A) (A) (A) (A) (A)
                 (A) (A) (A) (A) (A) (A) (A) (A) (A) (A) (A) (A)
                 (A) (A) (A) (A) (A) (A) (A) (A) (A) (A) (A) (A)
                 (A) (A) (A) (A) (A) (A) (A) (A) (A) (A) (A) (A)
                 (A) (A) (A) (A) (A) (A) (A) (A) (A) (A) (A) (A)
                 (A) (A) (A) (A) (A) (A) (A) (A) (A) (A) (A) (A)
                 (A) (A) (A) (A) (A) (A) (A) (A) (A) (A) (A) (A)
                 (A) (A) (A) (A) (A) (A) (A) (A) (A) (A) (A) (A)
                 (A) (A) (A) (A) (A) (A) (A) (A) (A) (A) (A) (A)
                 (A) (A) (A) (A) (A) (A) (A) (A) (A) (A) (A) (A)
                 (A) (A) (A) (A) (A) (A) (A) (A) (A) (A) (A) (A)
                 (A) (A) (A) (A) (A) (A) (A) (A) (A) (A) (A) (A)
                 (A) (A) (A) (A) (A) (A) (A) (A) (A) (A) (A) (A)
                 (A) (A) (A) (A) (A) (A) (A) (A) (A) (A) (A) (A)
                 (A) (A) (A) (A) (A) (A) (A) (A) (A) (A) (A) (A)
                 (A) (A) (A) (A) (A) (A) (A) (A) (A) (A) (A) (A)
                 (A) (A) (A) (A) (A) (A) (A) (A) (A) (A) (A) (A)
                 (A) (A) (A) (A) (A) (A) (A) (A) (A) (A) (A) (A)
                 (A) (A) (A) (A) (A) (A) (A) (A) (A) (A) (A) (A)
                 (A) (A) (A) (A) (A) (A) (A) (A) (A) (A) (A) (A)
                 (A) (A) (A) (A) (A) (A) (A) (A) (A) (A) (A) (A)
                 (A) (A) (A) (A) (A) (A) (A) (A) (A) (A) (A) (A)
                 (A) (A) (A) (A) (A) (A) (A) (A) (A) (A) (A) (A)
                 (A) (A) (A) (A) (A) (A) (A) (A) (A) (A) (A) (A)
                 (A) (A) (A)
 The electronic state of the initial guess is 1-A.
 Leave Link  401 at Sun Jul  5 03:03:42 2020, MaxMem=13421772800 cpu:     422.2
 (Enter /home/scr/programs/g09/l502.exe)
 Closed shell SCF:
 Requested convergence on RMS density matrix=1.00D-04 within 500 cycles.
 Requested convergence on MAX density matrix=1.00D-02.
 Requested convergence on             energy=1.00D-02.
 No special actions if energy rises.
 Using DIIS extrapolation, IDIIS=  1040.
 Integral symmetry usage will be decided dynamically.
       444829 words used for storage of precomputed grid.
 IEnd=     6667391 IEndB=     6667391 NGot= 13421772800 MDV= 13417329030
 LenX= 13417329030 LenY= 13415356410
 Fock matrices will be formed incrementally for  20 cycles.

 Cycle   1  Pass 1  IDiag  1:
 FoFCou: FMM=F IPFlag=           0 FMFlag=      100000 FMFlg1=           0
         NFxFlg=           0 DoJE=T BraDBF=F KetDBF=F FulRan=T
         Omega=  0.000000  0.000000  1.000000  0.000000  0.000000 ICntrl=     500 IOpCl=  0
         NMat0=    1 NMatS0=    1 NMatT0=    0 NMatD0=    1 NMtDS0=    0 NMtDT0=    0
         I1Cent=           0 NGrid=           0.
 Symmetry not used in FoFCou.
 Defaulting to unpruned grid for atomic number  50.
 Defaulting to unpruned grid for atomic number  50.
 Defaulting to unpruned grid for atomic number  50.
 Defaulting to unpruned grid for atomic number  50.
 Defaulting to unpruned grid for atomic number  50.
 Defaulting to unpruned grid for atomic number  50.
 Defaulting to unpruned grid for atomic number  50.
 Defaulting to unpruned grid for atomic number  50.
 Defaulting to unpruned grid for atomic number  50.
 Defaulting to unpruned grid for atomic number  50.
 Defaulting to unpruned grid for atomic number  50.
 Defaulting to unpruned grid for atomic number  50.
 Defaulting to unpruned grid for atomic number  50.
 Defaulting to unpruned grid for atomic number  50.
 Defaulting to unpruned grid for atomic number  50.
 Defaulting to unpruned grid for atomic number  50.
 Defaulting to unpruned grid for atomic number  50.
 Defaulting to unpruned grid for atomic number  50.
 Defaulting to unpruned grid for atomic number  50.
 Defaulting to unpruned grid for atomic number  50.
 Defaulting to unpruned grid for atomic number  50.
 Defaulting to unpruned grid for atomic number  50.
 Defaulting to unpruned grid for atomic number  50.
 Defaulting to unpruned grid for atomic number  50.
 Defaulting to unpruned grid for atomic number  50.
 Defaulting to unpruned grid for atomic number  50.
 Defaulting to unpruned grid for atomic number  50.
 Defaulting to unpruned grid for atomic number  50.
 Defaulting to unpruned grid for atomic number  50.
 Defaulting to unpruned grid for atomic number  50.
 Defaulting to unpruned grid for atomic number  50.
 Defaulting to unpruned grid for atomic number  50.
 E= -40558.7208586920    
 DIIS: error= 4.34D-01 at cycle   1 NSaved=   1.
 NSaved= 1 IEnMin= 1 EnMin= -40558.7208586920     IErMin= 1 ErrMin= 4.34D-01
 ErrMax= 4.34D-01 EMaxC= 1.00D-01 BMatC= 3.84D+02 BMatP= 3.84D+02
 IDIUse=3 WtCom= 0.00D+00 WtEn= 1.00D+00
 Coeff-Com:  0.100D+01
 Coeff-En:   0.100D+01
 Coeff:      0.100D+01
 Gap=     0.244 Goal=   None    Shift=    0.000
 GapD=    0.244 DampG=1.000 DampE=0.125 DampFc=0.1250 IDamp=-1.
 Damping current iteration by 1.25D-01
 RMSDP=3.99D-03 MaxDP=6.55D-01              OVMax= 5.12D-01

 Cycle   2  Pass 1  IDiag  1:
 RMSU=  3.50D-04    CP:  1.01D+00
 E= -40559.9302766580     Delta-E=       -1.209417966034 Rises=F Damp=T
 DIIS: error= 3.71D-01 at cycle   2 NSaved=   2.
 NSaved= 2 IEnMin= 2 EnMin= -40559.9302766580     IErMin= 2 ErrMin= 3.71D-01
 ErrMax= 3.71D-01 EMaxC= 1.00D-01 BMatC= 2.76D+02 BMatP= 3.84D+02
 IDIUse=3 WtCom= 0.00D+00 WtEn= 1.00D+00
 Coeff-Com: -0.512D+01 0.612D+01
 Coeff-En:   0.000D+00 0.100D+01
 Coeff:      0.000D+00 0.100D+01
 Gap=    -0.021 Goal=   None    Shift=    0.000
 RMSDP=2.36D-03 MaxDP=3.05D-01 DE=-1.21D+00 OVMax= 4.77D-01

 Cycle   3  Pass 1  IDiag  1:
 RMSU=  1.20D-03    CP:  1.02D+00  3.00D+00
 E= -40559.0758110757     Delta-E=        0.854465582350 Rises=F Damp=F
 DIIS: error= 6.35D-02 at cycle   3 NSaved=   3.
 NSaved= 3 IEnMin= 2 EnMin= -40559.9302766580     IErMin= 3 ErrMin= 6.35D-02
 ErrMax= 6.35D-02 EMaxC= 1.00D-01 BMatC= 2.79D+01 BMatP= 2.76D+02
 IDIUse=3 WtCom= 3.65D-01 WtEn= 6.35D-01
 EnCoef did   100 forward-backward iterations
 Coeff-Com:  0.399D+01-0.440D+01 0.142D+01
 Coeff-En:   0.470D+00 0.180D-01 0.512D+00
 Coeff:      0.175D+01-0.160D+01 0.843D+00
 Gap=     0.127 Goal=   None    Shift=    0.000
 RMSDP=2.95D-03 MaxDP=4.94D-01 DE= 8.54D-01 OVMax= 8.50D-01

 Cycle   4  Pass 1  IDiag  1:
 RMSU=  1.59D-03    CP:  1.02D+00  1.65D+00  1.56D-01
 E= -40555.0843156190     Delta-E=        3.991495456692 Rises=F Damp=F
 DIIS: error= 4.85D-02 at cycle   4 NSaved=   4.
 NSaved= 4 IEnMin= 2 EnMin= -40559.9302766580     IErMin= 4 ErrMin= 4.85D-02
 ErrMax= 4.85D-02 EMaxC= 1.00D-01 BMatC= 1.07D+01 BMatP= 2.79D+01
 IDIUse=3 WtCom= 5.15D-01 WtEn= 4.85D-01
 EnCoef did   100 forward-backward iterations
 Coeff-Com: -0.245D+01 0.287D+01-0.752D-01 0.657D+00
 Coeff-En:   0.956D-01 0.622D-02 0.570D+00 0.328D+00
 Coeff:     -0.122D+01 0.148D+01 0.238D+00 0.497D+00
 Gap=     0.132 Goal=   None    Shift=    0.000
 RMSDP=3.21D-03 MaxDP=6.00D-01 DE= 3.99D+00 OVMax= 8.25D-01

 Cycle   5  Pass 1  IDiag  1:
 RMSU=  9.53D-04    CP:  9.95D-01  3.00D+00  5.10D-01 -2.02D-01
 E= -40561.1224148348     Delta-E=       -6.038099215773 Rises=F Damp=F
 DIIS: error= 1.95D-02 at cycle   5 NSaved=   5.
 NSaved= 5 IEnMin= 5 EnMin= -40561.1224148348     IErMin= 5 ErrMin= 1.95D-02
 ErrMax= 1.95D-02 EMaxC= 1.00D-01 BMatC= 3.74D+00 BMatP= 1.07D+01
 IDIUse=3 WtCom= 8.05D-01 WtEn= 1.95D-01
 EnCoef did    11 forward-backward iterations
 Coeff-Com: -0.220D+01 0.253D+01-0.270D+00 0.457D+00 0.478D+00
 Coeff-En:   0.000D+00 0.000D+00 0.869D-01 0.316D+00 0.597D+00
 Coeff:     -0.177D+01 0.204D+01-0.200D+00 0.430D+00 0.502D+00
 Gap=     0.094 Goal=   None    Shift=    0.000
 RMSDP=1.49D-03 MaxDP=3.72D-01 DE=-6.04D+00 OVMax= 2.47D-01

 Cycle   6  Pass 1  IDiag  1:
 RMSU=  5.70D-04    CP:  1.02D+00  2.91D+00  5.08D-01  1.10D-01  2.63D-01
 E= -40563.2896752922     Delta-E=       -2.167260457398 Rises=F Damp=F
 DIIS: error= 1.19D-02 at cycle   6 NSaved=   6.
 NSaved= 6 IEnMin= 6 EnMin= -40563.2896752922     IErMin= 6 ErrMin= 1.19D-02
 ErrMax= 1.19D-02 EMaxC= 1.00D-01 BMatC= 9.69D-01 BMatP= 3.74D+00
 IDIUse=3 WtCom= 8.81D-01 WtEn= 1.19D-01
 Coeff-Com: -0.446D+00 0.508D+00-0.127D+00 0.206D+00 0.313D-01 0.827D+00
 Coeff-En:   0.000D+00 0.000D+00 0.000D+00 0.147D+00 0.000D+00 0.853D+00
 Coeff:     -0.393D+00 0.448D+00-0.112D+00 0.199D+00 0.276D-01 0.830D+00
 Gap=     0.068 Goal=   None    Shift=    0.000
 RMSDP=1.09D-03 MaxDP=1.66D-01 DE=-2.17D+00 OVMax= 1.93D-01

 Cycle   7  Pass 1  IDiag  1:
 RMSU=  6.66D-04    CP:  1.02D+00  2.26D+00  4.61D-01  2.57D-01  2.38D-01
                    CP:  6.55D-01
 E= -40563.7062951002     Delta-E=       -0.416619808035 Rises=F Damp=F
 DIIS: error= 6.76D-03 at cycle   7 NSaved=   7.
 NSaved= 7 IEnMin= 7 EnMin= -40563.7062951002     IErMin= 7 ErrMin= 6.76D-03
 ErrMax= 6.76D-03 EMaxC= 1.00D-01 BMatC= 3.15D-01 BMatP= 9.69D-01
 IDIUse=3 WtCom= 9.32D-01 WtEn= 6.76D-02
 Coeff-Com: -0.320D-01 0.341D-01-0.475D-01 0.477D-01-0.122D+00 0.571D+00
 Coeff-Com:  0.548D+00
 Coeff-En:   0.000D+00 0.000D+00 0.000D+00 0.000D+00 0.000D+00 0.268D+00
 Coeff-En:   0.732D+00
 Coeff:     -0.298D-01 0.318D-01-0.443D-01 0.445D-01-0.114D+00 0.551D+00
 Coeff:      0.561D+00
 Gap=     0.075 Goal=   None    Shift=    0.000
 RMSDP=1.02D-03 MaxDP=1.80D-01 DE=-4.17D-01 OVMax= 1.77D-01

 Cycle   8  Pass 1  IDiag  1:
 RMSU=  3.43D-04    CP:  1.02D+00  2.22D+00  4.47D-01  3.01D-01  4.66D-03
                    CP:  9.23D-01  1.50D-01
 E= -40563.8814213003     Delta-E=       -0.175126200113 Rises=F Damp=F
 DIIS: error= 3.54D-03 at cycle   8 NSaved=   8.
 NSaved= 8 IEnMin= 8 EnMin= -40563.8814213003     IErMin= 8 ErrMin= 3.54D-03
 ErrMax= 3.54D-03 EMaxC= 1.00D-01 BMatC= 9.28D-02 BMatP= 3.15D-01
 IDIUse=3 WtCom= 9.65D-01 WtEn= 3.54D-02
 Coeff-Com:  0.140D-01-0.167D-01-0.120D-01 0.697D-02-0.643D-01 0.240D+00
 Coeff-Com:  0.389D+00 0.443D+00
 Coeff-En:   0.000D+00 0.000D+00 0.000D+00 0.000D+00 0.000D+00 0.000D+00
 Coeff-En:   0.274D+00 0.726D+00
 Coeff:      0.135D-01-0.161D-01-0.115D-01 0.672D-02-0.620D-01 0.232D+00
 Coeff:      0.384D+00 0.453D+00
 Gap=     0.071 Goal=   None    Shift=    0.000
 RMSDP=3.93D-04 MaxDP=8.17D-02 DE=-1.75D-01 OVMax= 9.83D-02

 Cycle   9  Pass 1  IDiag  1:
 RMSU=  8.40D-05    CP:  1.02D+00  2.28D+00  4.72D-01  2.89D-01  6.35D-02
                    CP:  8.74D-01  4.63D-01  5.83D-01
 E= -40563.9503226357     Delta-E=       -0.068901335435 Rises=F Damp=F
 DIIS: error= 6.82D-04 at cycle   9 NSaved=   9.
 NSaved= 9 IEnMin= 9 EnMin= -40563.9503226357     IErMin= 9 ErrMin= 6.82D-04
 ErrMax= 6.82D-04 EMaxC= 1.00D-01 BMatC= 3.34D-03 BMatP= 9.28D-02
 IDIUse=3 WtCom= 9.93D-01 WtEn= 6.82D-03
 Coeff-Com:  0.251D-01-0.289D-01 0.447D-03 0.224D-03-0.141D-01 0.459D-01
 Coeff-Com:  0.122D+00 0.208D+00 0.642D+00
 Coeff-En:   0.000D+00 0.000D+00 0.000D+00 0.000D+00 0.000D+00 0.000D+00
 Coeff-En:   0.000D+00 0.000D+00 0.100D+01
 Coeff:      0.249D-01-0.287D-01 0.444D-03 0.223D-03-0.140D-01 0.456D-01
 Coeff:      0.121D+00 0.206D+00 0.644D+00
 Gap=     0.072 Goal=   None    Shift=    0.000
 RMSDP=9.70D-05 MaxDP=3.23D-02 DE=-6.89D-02 OVMax= 1.05D-02

 Cycle  10  Pass 1  IDiag  1:
 RMSU=  5.03D-05    CP:  1.02D+00  2.25D+00  4.66D-01  2.87D-01  6.99D-02
                    CP:  8.61D-01  4.39D-01  6.14D-01  5.48D-01
 E= -40563.9516205998     Delta-E=       -0.001297964089 Rises=F Damp=F
 DIIS: error= 4.86D-04 at cycle  10 NSaved=  10.
 NSaved=10 IEnMin=10 EnMin= -40563.9516205998     IErMin=10 ErrMin= 4.86D-04
 ErrMax= 4.86D-04 EMaxC= 1.00D-01 BMatC= 1.48D-03 BMatP= 3.34D-03
 IDIUse=3 WtCom= 9.95D-01 WtEn= 4.86D-03
 Coeff-Com:  0.375D-02-0.432D-02 0.130D-03-0.509D-04 0.217D-03-0.179D-02
 Coeff-Com:  0.266D-01 0.747D-01 0.468D+00 0.432D+00
 Coeff-En:   0.000D+00 0.000D+00 0.000D+00 0.000D+00 0.000D+00 0.000D+00
 Coeff-En:   0.000D+00 0.000D+00 0.344D+00 0.656D+00
 Coeff:      0.373D-02-0.430D-02 0.130D-03-0.506D-04 0.216D-03-0.178D-02
 Coeff:      0.265D-01 0.743D-01 0.468D+00 0.433D+00
 Gap=     0.072 Goal=   None    Shift=    0.000
 RMSDP=4.28D-05 MaxDP=1.29D-02 DE=-1.30D-03 OVMax= 4.94D-03

 Cycle  11  Pass 1  IDiag  1:
 RMSU=  1.17D-05    CP:  1.02D+00  2.25D+00  4.66D-01  2.89D-01  6.81D-02
                    CP:  8.68D-01  4.41D-01  6.10D-01  7.28D-01  5.50D-01
 E= -40563.9525891352     Delta-E=       -0.000968535402 Rises=F Damp=F
 DIIS: error= 1.03D-04 at cycle  11 NSaved=  11.
 NSaved=11 IEnMin=11 EnMin= -40563.9525891352     IErMin=11 ErrMin= 1.03D-04
 ErrMax= 1.03D-04 EMaxC= 1.00D-01 BMatC= 6.39D-05 BMatP= 1.48D-03
 IDIUse=3 WtCom= 9.99D-01 WtEn= 1.03D-03
 Coeff-Com:  0.467D-03-0.530D-03-0.558D-04-0.105D-04 0.323D-03-0.242D-02
 Coeff-Com:  0.109D-01 0.356D-01 0.258D+00 0.264D+00 0.434D+00
 Coeff-En:   0.000D+00 0.000D+00 0.000D+00 0.000D+00 0.000D+00 0.000D+00
 Coeff-En:   0.000D+00 0.000D+00 0.000D+00 0.000D+00 0.100D+01
 Coeff:      0.466D-03-0.529D-03-0.558D-04-0.105D-04 0.323D-03-0.242D-02
 Coeff:      0.109D-01 0.356D-01 0.258D+00 0.263D+00 0.435D+00
 Gap=     0.072 Goal=   None    Shift=    0.000
 RMSDP=1.03D-05 MaxDP=2.08D-03 DE=-9.69D-04 OVMax= 1.28D-03

 Error on total polarization charges =  0.03276
 SCF Done:  E(RPBE-PBE) =  -40563.9525891     A.U. after   11 cycles
             Convg  =    0.1029D-04             -V/T =  2.0149
 KE= 3.996692759803D+04 PE=-1.275141181898D+05 EE= 3.125688826781D+04
 Leave Link  502 at Sun Jul  5 03:28:26 2020, MaxMem=13421772800 cpu:   45803.9
 (Enter /home/scr/programs/g09/l801.exe)
 Range of M.O.s used for correlation:     1  1292
 NBasis=  1292 NAE=   257 NBE=   257 NFC=     0 NFV=     0
 NROrb=   1292 NOA=   257 NOB=   257 NVA=  1035 NVB=  1035

 **** Warning!!: The largest alpha MO coefficient is  0.42854857D+02


 **** Warning!!: The smallest alpha delta epsilon is  0.72351288D-01

 Leave Link  801 at Sun Jul  5 03:28:26 2020, MaxMem=13421772800 cpu:       2.3
 (Enter /home/scr/programs/g09/l1002.exe)
 Minotr:  Closed shell wavefunction.
 NEqPCM:  Using equilibrium solvation (IEInf=0, Eps=  20.4930, EpsInf=   1.8463)
          Direct CPHF calculation.
          Differentiating once with respect to magnetic field using GIAOs.
          Electric field/nuclear overlap derivatives assumed to be zero.
          Requested convergence is 1.0D-08 RMS, and 1.0D-07 maximum.
          Secondary convergence is 1.0D-12 RMS, and 1.0D-12 maximum.
          NewPWx=T KeepS1=F KeepF1=F KeepIn=T MapXYZ=F SortEE=F KeepMc=T.
          MDV=   13421772436 using IRadAn=       2.
 Defaulting to unpruned grid for atomic number  50.
 Defaulting to unpruned grid for atomic number  78.
 Defaulting to unpruned grid for atomic number  50.
 Generate precomputed XC quadrature information.
          Solving linear equations simultaneously, MaxMat=       0.
 FoFCou: FMM=F IPFlag=           0 FMFlag=    10101102 FMFlg1=           0
         NFxFlg=    40000000 DoJE=F BraDBF=F KetDBF=T FulRan=T
         Omega=  0.000000  0.000000  1.000000  0.000000  0.000000 ICntrl=    6100 IOpCl=  0
         NMat0=    1 NMatS0=    1 NMatT0=    0 NMatD0=    1 NMtDS0=    0 NMtDT0=    0
         I1Cent=           7 NGrid=        4318.
 Symmetry not used in FoFCou.
 Defaulting to unpruned grid for atomic number  50.
 Defaulting to unpruned grid for atomic number  50.
 Defaulting to unpruned grid for atomic number  50.
 Defaulting to unpruned grid for atomic number  50.
 Defaulting to unpruned grid for atomic number  50.
 Defaulting to unpruned grid for atomic number  50.
 Defaulting to unpruned grid for atomic number  50.
 Defaulting to unpruned grid for atomic number  50.
 Defaulting to unpruned grid for atomic number  50.
 Defaulting to unpruned grid for atomic number  50.
 Defaulting to unpruned grid for atomic number  50.
 Defaulting to unpruned grid for atomic number  50.
 Defaulting to unpruned grid for atomic number  50.
 Defaulting to unpruned grid for atomic number  50.
 Defaulting to unpruned grid for atomic number  50.
 Defaulting to unpruned grid for atomic number  50.
 Defaulting to unpruned grid for atomic number  50.
 Defaulting to unpruned grid for atomic number  50.
 Defaulting to unpruned grid for atomic number  50.
 Defaulting to unpruned grid for atomic number  50.
 Defaulting to unpruned grid for atomic number  50.
 Defaulting to unpruned grid for atomic number  50.
 Defaulting to unpruned grid for atomic number  50.
 Defaulting to unpruned grid for atomic number  50.
 Defaulting to unpruned grid for atomic number  50.
 Defaulting to unpruned grid for atomic number  50.
 Defaulting to unpruned grid for atomic number  50.
 Defaulting to unpruned grid for atomic number  50.
 Defaulting to unpruned grid for atomic number  50.
 Defaulting to unpruned grid for atomic number  50.
 Defaulting to unpruned grid for atomic number  50.
 Defaulting to unpruned grid for atomic number  50.
          There are     3 degrees of freedom in the 1st order CPHF.  IDoFFX=0.
      3 vectors produced by pass  0 Test12= 8.87D-12 3.33D-08 XBig12= 1.73D+02 1.68D+00.
 AX will form     3 AO Fock derivatives at one time.
 Inverted reduced A of dimension     3 with in-core refinement.
 Calculating GIAO nuclear magnetic shielding tensors.
 SCF GIAO Magnetic shielding tensor (ppm):
  1  Sn   Isotropic =  2138.2894   Anisotropy =   762.3093
   XX=  2640.9151   YX=    71.6685   ZX=    -2.3058
   XY=    61.4529   YY=  1846.5508   ZY=    41.0786
   XZ=     7.1471   YZ=    32.9261   ZZ=  1927.4022
   Eigenvalues:  1827.5389  1940.8337  2646.4956
  2  Sn   Isotropic =  2176.7144   Anisotropy =   725.9576
   XX=  2066.2213   YX=   319.6041   ZX=   -18.3177
   XY=   327.0684   YY=  2484.6301   ZY=    -1.0463
   XZ=   -14.3699   YZ=    -3.9068   ZZ=  1979.2918
   Eigenvalues:  1888.3998  1981.0573  2660.6861
  3  Cl   Isotropic =   697.1496   Anisotropy =   400.2470
   XX=   644.5559   YX=   181.5412   ZX=   -61.9798
   XY=   187.2553   YY=   826.6476   ZY=   -61.3010
   XZ=   -60.1251   YZ=   -70.7480   ZZ=   620.2453
   Eigenvalues:   526.1150   601.3529   963.9809
  4  Cl   Isotropic =   727.8232   Anisotropy =   374.2886
   XX=   741.2925   YX=  -151.1999   ZX=  -129.9588
   XY=  -159.7465   YY=   713.3676   ZY=    84.7915
   XZ=  -123.1288   YZ=    90.2687   ZZ=   728.8094
   Eigenvalues:   566.3844   639.7362   977.3489
  5  Cl   Isotropic =   701.9103   Anisotropy =   394.4187
   XX=   706.8753   YX=   -18.5715   ZX=   174.0770
   XY=    10.5774   YY=   577.2746   ZY=   -55.9558
   XZ=   199.1788   YZ=   -51.4487   ZZ=   821.5812
   Eigenvalues:   541.8991   598.9758   964.8562
  6  Cl   Isotropic =   730.9945   Anisotropy =   367.7699
   XX=   723.7143   YX=    86.1373   ZX=   124.1194
   XY=    60.3158   YY=   630.4029   ZY=   127.3450
   XZ=   125.2376   YZ=   113.8789   ZZ=   838.8663
   Eigenvalues:   572.7225   644.0866   976.1745
  7  Cl   Isotropic =   734.9942   Anisotropy =   369.7312
   XX=   825.7841   YX=    76.9414   ZX=  -154.3589
   XY=    64.8624   YY=   594.9678   ZY=   -68.6012
   XZ=  -148.2363   YZ=   -60.3791   ZZ=   784.2306
   Eigenvalues:   571.1651   652.3358   981.4816
  8  Cl   Isotropic =   744.6162   Anisotropy =   377.4050
   XX=   698.8973   YX=  -154.1827   ZX=    34.2813
   XY=  -154.5830   YY=   901.2636   ZY=   -54.2077
   XZ=    29.7563   YZ=   -58.3101   ZZ=   633.6879
   Eigenvalues:   615.2078   622.4214   996.2196
  9  O    Isotropic =   194.3551   Anisotropy =   141.3100
   XX=   192.5490   YX=   -54.4099   ZX=    33.6886
[...]
    28  C   -0.093530  -0.132374  -0.001516   0.030418   0.270838  -0.010258
    29  H   -0.001346   0.006240  -0.000018  -0.000156  -0.000320   0.000087
    30  H   -0.006796   0.023020  -0.000022   0.000247   0.002217   0.000850
    31  H   -0.003019   0.051521  -0.000349  -0.000558   0.004247   0.000564
    32  C   -0.076688  -0.171293   0.262241   0.012889   0.023562  -0.012024
    33  H   -0.003714   0.006857  -0.000789  -0.000177  -0.000008   0.000151
    34  H   -0.012096   0.037130  -0.003412  -0.000099   0.000455  -0.000027
    35  H   -0.004898   0.052503   0.005318   0.002366  -0.001652   0.002377
    36  Sn  -0.058613   0.098056  -0.011627   0.005292   0.002914  -0.012565
    37  Cl   0.008584  -0.008501  -0.006209   0.000199   0.000415   0.000129
    38  Cl   0.011938   0.002603   0.000153  -0.000056   0.000006   0.000141
    39  Cl   0.008446  -0.015500  -0.002542   0.000891  -0.000031  -0.013836
    40  P   -2.263477  -0.203140   0.003318  -0.000873   0.003924   0.000346
    41  O    0.171610   0.004794   0.000000   0.000000  -0.000001   0.000000
    42  C    0.017744   0.001181   0.000000   0.000000  -0.000001   0.000000
    43  H    0.000651  -0.000084   0.000000   0.000000   0.000000   0.000000
    44  H   -0.001284   0.000014   0.000000   0.000000   0.000000   0.000000
    45  H   -0.000740   0.000107   0.000000   0.000000   0.000000   0.000000
             25         26         27         28         29         30
     1  Sn   0.001630  -0.000651  -0.004291   0.000132   0.000242  -0.001379
     2  Sn  -0.000181   0.000612   0.001314  -0.004977   0.011538  -0.001904
     3  Cl   0.016220  -0.001034  -0.000705  -0.000292   0.000025  -0.000318
     4  Cl  -0.000718   0.000177   0.000016   0.000753  -0.000634   0.008268
     5  Cl   0.000031  -0.000002  -0.000004   0.000119  -0.000011  -0.000070
     6  Cl  -0.000001  -0.000040   0.000051  -0.002498  -0.001261   0.000344
     7  Cl   0.000000  -0.000003   0.000000   0.000003  -0.000013   0.000001
     8  Cl   0.000000   0.000000   0.000001  -0.000403  -0.000529  -0.000070
     9  O    0.000000   0.000000   0.000000   0.000000   0.000000   0.000000
    10  O    0.000000   0.000000   0.000000   0.000000   0.000000   0.000000
    11  C    0.000000   0.000000   0.000000   0.000000   0.000000   0.000000
    12  H    0.000000   0.000000   0.000000   0.000000   0.000000   0.000000
    13  H    0.000000   0.000000   0.000000   0.000000   0.000000   0.000000
    14  H    0.000000   0.000000   0.000000   0.000000   0.000000   0.000000
    15  C    0.000001   0.000002   0.000000   0.000000   0.000000   0.000000
    16  H    0.000000   0.000000   0.000000   0.000000   0.000000   0.000000
    17  H   -0.000001   0.000001   0.000000   0.000000   0.000000   0.000000
    18  H    0.000000   0.000000   0.000000   0.000000   0.000000   0.000000
    19  Pt  -0.000570   0.006924  -0.000730  -0.093530  -0.001346  -0.006796
    20  P    0.011100   0.029562   0.029992  -0.132374   0.006240   0.023020
    21  O    0.000080   0.000928  -0.001394  -0.001516  -0.000018  -0.000022
    22  O   -0.005020   0.010888  -0.005178   0.030418  -0.000156   0.000247
    23  O    0.000120   0.000082   0.000062   0.270838  -0.000320   0.002217
    24  C    0.377146   0.362925   0.363680  -0.010258   0.000087   0.000850
    25  H    0.463481   0.013915   0.011300  -0.000054   0.000000  -0.000005
    26  H    0.013915   0.466261   0.014104   0.000207   0.000000  -0.000002
    27  H    0.011300   0.014104   0.462512  -0.000322   0.000001  -0.000016
    28  C   -0.000054   0.000207  -0.000322   5.019267   0.358481   0.363525
    29  H    0.000000   0.000000   0.000001   0.358481   0.458906   0.011416
    30  H   -0.000005  -0.000002  -0.000016   0.363525   0.011416   0.463730
    31  H    0.000003   0.000002   0.000030   0.343006   0.013924   0.012202
    32  C   -0.000038   0.001107  -0.000527   0.001609   0.000278  -0.000008
    33  H    0.000000  -0.000021   0.000003  -0.000064   0.000000   0.000000
    34  H    0.000000  -0.000002  -0.000001   0.001148  -0.000087  -0.000011
    35  H   -0.000002  -0.000163   0.000520  -0.000948   0.000004   0.000019
    36  Sn   0.000039  -0.002951   0.001215   0.002958  -0.000636   0.002512
    37  Cl  -0.000004  -0.000159   0.000001  -0.000096  -0.000001   0.000004
    38  Cl   0.000013   0.000001   0.000001  -0.000003   0.000000   0.000001
    39  Cl  -0.000378   0.021817  -0.001509   0.000358   0.000004  -0.000012
    40  P    0.000060   0.000437  -0.000004  -0.001122  -0.000081  -0.000033
    41  O    0.000000   0.000000   0.000000   0.000000   0.000000   0.000000
    42  C    0.000000   0.000000   0.000000   0.000000   0.000000   0.000000
    43  H    0.000000   0.000000   0.000000   0.000000   0.000000   0.000000
    44  H    0.000000   0.000000   0.000000   0.000000   0.000000   0.000000
    45  H    0.000000   0.000000   0.000000   0.000000   0.000000   0.000000
             31         32         33         34         35         36
     1  Sn   0.000413   0.001980   0.000515   0.002219  -0.002600  -0.082299
     2  Sn  -0.004917  -0.004620   0.000633  -0.001200   0.000809  -0.068391
     3  Cl   0.000028   0.000111  -0.000008   0.000008   0.000021  -0.011217
     4  Cl  -0.000822   0.000576   0.000003   0.000017   0.000002  -0.000076
     5  Cl   0.000001   0.000011   0.000000   0.000000   0.000000  -0.007047
     6  Cl  -0.000831   0.001807  -0.001171   0.005859  -0.000871  -0.009085
     7  Cl  -0.000004  -0.000202  -0.000015  -0.000024   0.000002  -0.013460
     8  Cl   0.000094   0.000002   0.000008  -0.000050   0.000007   0.002071
     9  O    0.000000   0.000000   0.000000   0.000000   0.000000   0.002478
    10  O    0.000000  -0.000001   0.000000   0.000000   0.000000   0.003909
    11  C    0.000000   0.000000   0.000000   0.000000   0.000000   0.003730
    12  H    0.000000   0.000000   0.000000   0.000000   0.000000  -0.000804
    13  H    0.000000   0.000000   0.000000   0.000000   0.000000   0.014799
    14  H    0.000000   0.000000   0.000000   0.000000   0.000000  -0.006861
    15  C    0.000000   0.000000   0.000000   0.000000   0.000000  -0.001894
    16  H    0.000000   0.000000   0.000000   0.000000   0.000000  -0.004162
    17  H    0.000000   0.000000   0.000000   0.000000   0.000000  -0.000639
    18  H    0.000000   0.000000   0.000000   0.000000   0.000000   0.000971
    19  Pt  -0.003019  -0.076688  -0.003714  -0.012096  -0.004898  -0.058613
    20  P    0.051521  -0.171293   0.006857   0.037130   0.052503   0.098056
    21  O   -0.000349   0.262241  -0.000789  -0.003412   0.005318  -0.011627
    22  O   -0.000558   0.012889  -0.000177  -0.000099   0.002366   0.005292
    23  O    0.004247   0.023562  -0.000008   0.000455  -0.001652   0.002914
    24  C    0.000564  -0.012024   0.000151  -0.000027   0.002377  -0.012565
    25  H    0.000003  -0.000038   0.000000   0.000000  -0.000002   0.000039
    26  H    0.000002   0.001107  -0.000021  -0.000002  -0.000163  -0.002951
    27  H    0.000030  -0.000527   0.000003  -0.000001   0.000520   0.001215
    28  C    0.343006   0.001609  -0.000064   0.001148  -0.000948   0.002958
    29  H    0.013924   0.000278   0.000000  -0.000087   0.000004  -0.000636
    30  H    0.012202  -0.000008   0.000000  -0.000011   0.000019   0.002512
    31  H    0.474431   0.001439   0.000002   0.000729   0.000869  -0.001549
    32  C    0.001439   5.046015   0.358014   0.360354   0.342591   0.008176
    33  H    0.000002   0.358014   0.463523   0.011336   0.014438   0.011846
    34  H    0.000729   0.360354   0.011336   0.465912   0.010901  -0.001788
    35  H    0.000869   0.342591   0.014438   0.010901   0.473356  -0.004995
    36  Sn  -0.001549   0.008176   0.011846  -0.001788  -0.004995  48.923539
    37  Cl   0.000016   0.000425  -0.000645  -0.000160   0.000057   0.227418
    38  Cl   0.000000  -0.000036  -0.000010   0.000003   0.000001   0.183768
    39  Cl   0.000022  -0.000130  -0.001118   0.000169  -0.000288   0.185610
    40  P    0.000032  -0.000830  -0.000016  -0.000112   0.000044   0.125648
    41  O    0.000000   0.000000   0.000000   0.000000   0.000000   0.006719
    42  C    0.000000   0.000000   0.000000   0.000000   0.000000   0.002930
    43  H    0.000000   0.000000   0.000000   0.000000   0.000000  -0.001447
    44  H    0.000000   0.000000   0.000000   0.000000   0.000000  -0.000808
    45  H    0.000000   0.000000   0.000000   0.000000   0.000000   0.002633
             37         38         39         40         41         42
     1  Sn  -0.002121  -0.004018  -0.000277   0.115099   0.002426  -0.004652
     2  Sn  -0.007738  -0.002828  -0.003867   0.124615   0.010204   0.003853
     3  Cl  -0.000027   0.000913   0.000207  -0.008977  -0.000048  -0.000061
     4  Cl   0.000006  -0.000002  -0.000093  -0.008184   0.000505   0.000052
     5  Cl  -0.000052   0.000074  -0.000017  -0.002381  -0.000281  -0.012187
     6  Cl  -0.001718  -0.000146   0.000049  -0.009253   0.000152   0.000035
     7  Cl  -0.002410  -0.000056  -0.000165   0.005619  -0.000838   0.000031
     8  Cl   0.000199  -0.000035  -0.000067  -0.010819  -0.004688   0.003330
     9  O    0.000146  -0.000535  -0.000049   0.158490  -0.018837   0.020995
    10  O   -0.006597   0.002351   0.000506   0.071561  -0.017422   0.000319
    11  C   -0.000192  -0.002807  -0.000044  -0.126391   0.015165  -0.008673
    12  H   -0.000051   0.000108   0.000006   0.026167   0.000307   0.000761
    13  H   -0.001003   0.000049  -0.000006   0.006092   0.000098   0.000012
    14  H   -0.000032  -0.000203  -0.000007   0.048415  -0.000332   0.000631
    15  C   -0.000043  -0.004068   0.000236  -0.347334   0.000698  -0.006485
    16  H   -0.000095   0.012480  -0.000109   0.031357   0.000045   0.000118
    17  H   -0.000051  -0.001573   0.000067   0.046937  -0.000087   0.000106
    18  H    0.000013  -0.000940   0.000022   0.003586   0.000052   0.000013
    19  Pt   0.008584   0.011938   0.008446  -2.263477   0.171610   0.017744
    20  P   -0.008501   0.002603  -0.015500  -0.203140   0.004794   0.001181
    21  O   -0.006209   0.000153  -0.002542   0.003318   0.000000   0.000000
    22  O    0.000199  -0.000056   0.000891  -0.000873   0.000000   0.000000
    23  O    0.000415   0.000006  -0.000031   0.003924  -0.000001  -0.000001
    24  C    0.000129   0.000141  -0.013836   0.000346   0.000000   0.000000
    25  H   -0.000004   0.000013  -0.000378   0.000060   0.000000   0.000000
    26  H   -0.000159   0.000001   0.021817   0.000437   0.000000   0.000000
    27  H    0.000001   0.000001  -0.001509  -0.000004   0.000000   0.000000
    28  C   -0.000096  -0.000003   0.000358  -0.001122   0.000000   0.000000
    29  H   -0.000001   0.000000   0.000004  -0.000081   0.000000   0.000000
    30  H    0.000004   0.000001  -0.000012  -0.000033   0.000000   0.000000
    31  H    0.000016   0.000000   0.000022   0.000032   0.000000   0.000000
    32  C    0.000425  -0.000036  -0.000130  -0.000830   0.000000   0.000000
    33  H   -0.000645  -0.000010  -0.001118  -0.000016   0.000000   0.000000
    34  H   -0.000160   0.000003   0.000169  -0.000112   0.000000   0.000000
    35  H    0.000057   0.000001  -0.000288   0.000044   0.000000   0.000000
    36  Sn   0.227418   0.183768   0.185610   0.125648   0.006719   0.002930
    37  Cl  17.050397   0.015922   0.013940  -0.014329   0.000400  -0.000017
    38  Cl   0.015922  17.056210   0.010352  -0.027891   0.000076   0.000402
    39  Cl   0.013940   0.010352  17.053552  -0.004999   0.000026   0.000000
    40  P   -0.014329  -0.027891  -0.004999  17.459624   0.018801  -0.220814
    41  O    0.000400   0.000076   0.000026   0.018801   7.593093   0.316070
    42  C   -0.000017   0.000402   0.000000  -0.220814   0.316070   4.974203
    43  H   -0.000010  -0.000026  -0.000003   0.042641   0.001365   0.336633
    44  H    0.000000   0.000004   0.000000   0.004461   0.000189   0.362168
    45  H    0.000013   0.000026   0.000002   0.030807  -0.001476   0.366145
             43         44         45
     1  Sn   0.004766   0.000832  -0.005055
     2  Sn  -0.004312   0.011476  -0.004153
     3  Cl   0.000015   0.000002  -0.000007
     4  Cl  -0.000771   0.000005   0.000013
     5  Cl   0.013850  -0.000668  -0.000606
     6  Cl   0.000008  -0.000005   0.000000
     7  Cl   0.000149  -0.001621  -0.000010
     8  Cl  -0.000373  -0.000718  -0.000076
     9  O   -0.000941  -0.000114   0.002615
    10  O    0.000005   0.000019  -0.000087
    11  C    0.000206   0.000117  -0.000539
    12  H   -0.000002  -0.000015  -0.000024
    13  H    0.000000   0.000000   0.000001
    14  H   -0.000001   0.000004  -0.000071
    15  C   -0.000140   0.000047   0.001247
    16  H   -0.000001   0.000000  -0.000006
    17  H    0.000001   0.000000  -0.000006
    18  H    0.000009   0.000000  -0.000038
    19  Pt   0.000651  -0.001284  -0.000740
    20  P   -0.000084   0.000014   0.000107
    21  O    0.000000   0.000000   0.000000
    22  O    0.000000   0.000000   0.000000
    23  O    0.000000   0.000000   0.000000
    24  C    0.000000   0.000000   0.000000
    25  H    0.000000   0.000000   0.000000
    26  H    0.000000   0.000000   0.000000
    27  H    0.000000   0.000000   0.000000
    28  C    0.000000   0.000000   0.000000
    29  H    0.000000   0.000000   0.000000
    30  H    0.000000   0.000000   0.000000
    31  H    0.000000   0.000000   0.000000
    32  C    0.000000   0.000000   0.000000
    33  H    0.000000   0.000000   0.000000
    34  H    0.000000   0.000000   0.000000
    35  H    0.000000   0.000000   0.000000
    36  Sn  -0.001447  -0.000808   0.002633
    37  Cl  -0.000010   0.000000   0.000013
    38  Cl  -0.000026   0.000004   0.000026
    39  Cl  -0.000003   0.000000   0.000002
    40  P    0.042641   0.004461   0.030807
    41  O    0.001365   0.000189  -0.001476
    42  C    0.336633   0.362168   0.366145
    43  H    0.485399   0.013041   0.011674
    44  H    0.013041   0.453663   0.010459
    45  H    0.011674   0.010459   0.457656
 Mulliken atomic charges:
              1
     1  Sn   0.497165
     2  Sn   0.471191
     3  Cl  -0.269035
     4  Cl  -0.216749
     5  Cl  -0.205330
     6  Cl  -0.227362
     7  Cl  -0.235535
     8  Cl  -0.258487
     9  O   -0.084544
    10  O   -0.099490
    11  C   -0.184413
    12  H    0.127247
    13  H    0.139638
    14  H    0.106857
    15  C   -0.151602
    16  H    0.117300
    17  H    0.076529
    18  H    0.147567
    19  Pt  -0.806652
    20  P   -0.027710
    21  O   -0.093252
    22  O   -0.159475
    23  O   -0.082721
    24  C   -0.104280
    25  H    0.111833
    26  H    0.075076
    27  H    0.129876
    28  C   -0.144365
    29  H    0.143950
    30  H    0.122290
    31  H    0.108472
    32  C   -0.156789
    33  H    0.140428
    34  H    0.122828
    35  H    0.110212
    36  Sn   0.483680
    37  Cl  -0.266023
    38  Cl  -0.252364
    39  Cl  -0.251234
    40  P   -0.077022
    41  O   -0.098786
    42  C   -0.154842
    43  H    0.097698
    44  H    0.148731
    45  H    0.129495
 Sum of Mulliken atomic charges =  -1.00000
 Mulliken charges with hydrogens summed into heavy atoms:
              1
     1  Sn   0.497165
     2  Sn   0.471191
     3  Cl  -0.269035
     4  Cl  -0.216749
     5  Cl  -0.205330
     6  Cl  -0.227362
     7  Cl  -0.235535
     8  Cl  -0.258487
     9  O   -0.084544
    10  O   -0.099490
    11  C    0.189330
    15  C    0.189794
    19  Pt  -0.806652
    20  P   -0.027710
    21  O   -0.093252
    22  O   -0.159475
    23  O   -0.082721
    24  C    0.212506
    28  C    0.230347
    32  C    0.216678
    36  Sn   0.483680
    37  Cl  -0.266023
    38  Cl  -0.252364
    39  Cl  -0.251234
    40  P   -0.077022
    41  O   -0.098786
    42  C    0.221083
 Sum of Mulliken charges with hydrogens summed into heavy atoms =  -1.00000
 Electronic spatial extent (au):  <R**2>=          22197.8987
 Charge=             -1.0000 electrons
 Dipole moment (field-independent basis, Debye):
    X=             -4.0780    Y=             -1.6198    Z=              0.8130  Tot=              4.4626
 Quadrupole moment (field-independent basis, Debye-Ang):
   XX=           -422.2334   YY=           -403.3597   ZZ=           -280.3175
   XY=             -0.4795   XZ=             -9.9899   YZ=              9.9974
 Traceless Quadrupole moment (field-independent basis, Debye-Ang):
   XX=            -53.5966   YY=            -34.7228   ZZ=             88.3194
   XY=             -0.4795   XZ=             -9.9899   YZ=              9.9974
 Octapole moment (field-independent basis, Debye-Ang**2):
  XXX=             77.1869  YYY=            -16.8668  ZZZ=             45.3453  XYY=           -131.5840
  XXY=              7.8672  XXZ=             -2.5076  XZZ=             -6.2521  YZZ=             10.0761
  YYZ=            -16.7365  XYZ=             11.7853
 Hexadecapole moment (field-independent basis, Debye-Ang**3):
 XXXX=         -11764.3889 YYYY=         -10205.1991 ZZZZ=          -7022.0771 XXXY=            -44.9276
 XXXZ=           -107.2004 YYYX=             53.5770 YYYZ=            104.3438 ZZZX=           -112.9625
 ZZZY=             69.3824 XXYY=          -3658.3193 XXZZ=          -3105.3808 YYZZ=          -2824.7039
 XXYZ=             33.7548 YYXZ=            -15.9829 ZZXY=            -35.0462
 N-N= 1.572634973482D+04 E-N=-1.275143741262D+05  KE= 3.996692759803D+04
 Calculating spin-rotation constants.
 Leave Link  601 at Sun Jul  5 04:08:01 2020, MaxMem=13421772800 cpu:   10285.4
 (Enter /home/scr/programs/g09/l9999.exe)
 1\1\GINC-NEQC33\SP\RPBEPBE\Gen\C6H18Cl9O6P2Pt1Sn3(1-)\GUEST1\05-Jul-20
 20\0\\#PBEPBE/gen scf=(maxcycle=500,conver=4) NMR=GIAO Scrf=(solvent=a
 cetone)\\estrutura 22\\-1,1\Sn,0,-2.815316,-0.194549,-0.203955\Sn,0,1.
 306116,2.323906,-0.058441\Cl,0,-3.774221,-2.352206,0.455228\Cl,0,-4.18
 6356,1.313113,1.137325\Cl,0,-4.00699,0.060748,-2.321565\Cl,0,2.514771,
 3.070763,1.935972\Cl,0,3.116393,2.698367,-1.659817\Cl,0,-0.03343,4.326
 681,-0.504978\O,0,-0.739351,-1.024047,-3.297402\O,0,1.732318,-0.589522
 ,-2.618762\C,0,2.335465,-0.656409,-3.924873\H,0,2.715615,0.334569,-4.2
 04005\H,0,3.163216,-1.370136,-3.844902\H,0,1.614536,-1.011896,-4.67287
 9\C,0,-1.146857,-2.377378,-3.039679\H,0,-0.294359,-3.061857,-3.145622\
 H,0,-1.569785,-2.480417,-2.028587\H,0,-1.922752,-2.611107,-3.778751\Pt
 ,0,-0.10399,-0.035269,-0.05344\P,0,-0.353848,0.217401,2.252456\O,0,1.0
 2252,-0.184542,2.99145\O,0,-1.537767,-0.546268,3.042665\O,0,-0.707753,
 1.745037,2.605143\C,0,-1.543307,-1.925258,3.479075\H,0,-2.400438,-2.42
 3682,3.007033\H,0,-0.614839,-2.443287,3.204532\H,0,-1.6588,-1.925279,4
 .573606\C,0,-1.474169,2.219142,3.733027\H,0,-1.427733,3.313254,3.68590
 3\H,0,-2.513661,1.883155,3.642749\H,0,-1.043794,1.875547,4.683153\C,0,
 1.389002,0.214321,4.325197\H,0,2.309766,-0.33113,4.566976\H,0,1.582841
 ,1.296665,4.344977\H,0,0.604131,-0.051398,5.050379\Sn,0,1.630155,-2.12
 6673,0.241952\Cl,0,3.946147,-1.393519,0.557137\Cl,0,2.007889,-3.81096,
 -1.510906\Cl,0,1.512754,-3.71987,2.111906\P,0,0.215482,-0.118991,-2.36
 0179\O,0,0.130755,1.288395,-3.137722\C,0,-0.980412,1.787698,-3.912764\
 H,0,-1.893843,1.841918,-3.303953\H,0,-0.69004,2.795295,-4.235713\H,0,-
 1.153474,1.142235,-4.786511\\Version=EM64L-G09RevA.02\State=1-A\HF=-40
 563.9525891\RMSD=1.029e-05\Dipole=-1.6044038,-0.6372727,0.319848\Quadr
 upole=-39.8477418,-25.815538,65.6632798,-0.3565314,-7.4272519,7.432829
 5\PG=C01 [X(C6H18Cl9O6P2Pt1Sn3)]\\@


 IT IS THE GODS' CUSTOM TO BRING LOW ALL THINGS OF SURPASSING GREATNESS.
     -- HERODOTUS
 IT IS THE LOFTY PINE THAT BY THE STORM IS OFTENER TOSSED;
 TOWERS FALL WITH HEAVIER CRASH WHICH HIGHER SOAR.
     -- HORACE
 THE BIGGER THEY COME, THE HARDER THEY FALL.
     -- BOB FITZSIMONS HEAVYWEIGHT CHAMPION, 1897-1899
 Job cpu time:  1 days  9 hours 24 minutes 38.2 seconds.
 File lengths (MBytes):  RWF=   1236 Int=      0 D2E=      0 Chk=     92 Scr=      1
 Normal termination of Gaussian 09 at Sun Jul  5 04:08:01 2020.
