 Entering Gaussian System, Link 0=g09
 Input=/home/nqtcm/milena/Pt-Sn/B3LYP_LANL2DZ_def2-SVP/nmr/estrutura72.com
 Output=/home/nqtcm/milena/Pt-Sn/B3LYP_LANL2DZ_def2-SVP/nmr/estrutura72.log
 Initial command:
 /scr/programas/g09/l1.exe "/scr/nqtcm/Gau-4473.inp" -scrdir="/scr/nqtcm/"
 Entering Link 1 = /scr/programas/g09/l1.exe PID=      4475.
  
 Copyright (c) 1988,1990,1992,1993,1995,1998,2003,2009,2013,
            Gaussian, Inc.  All Rights Reserved.
  
 This is part of the Gaussian(R) 09 program.  It is based on
 the Gaussian(R) 03 system (copyright 2003, Gaussian, Inc.),
 the Gaussian(R) 98 system (copyright 1998, Gaussian, Inc.),
 the Gaussian(R) 94 system (copyright 1995, Gaussian, Inc.),
 the Gaussian 92(TM) system (copyright 1992, Gaussian, Inc.),
 the Gaussian 90(TM) system (copyright 1990, Gaussian, Inc.),
 the Gaussian 88(TM) system (copyright 1988, Gaussian, Inc.),
 the Gaussian 86(TM) system (copyright 1986, Carnegie Mellon
 University), and the Gaussian 82(TM) system (copyright 1983,
 Carnegie Mellon University). Gaussian is a federally registered
 trademark of Gaussian, Inc.
  
 This software contains proprietary and confidential information,
 including trade secrets, belonging to Gaussian, Inc.
  
 This software is provided under written license and may be
 used, copied, transmitted, or stored only in accord with that
 written license.
  
 The following legend is applicable only to US Government
 contracts under FAR:
  
                    RESTRICTED RIGHTS LEGEND
  
 Use, reproduction and disclosure by the US Government is
 subject to restrictions as set forth in subparagraphs (a)
 and (c) of the Commercial Computer Software - Restricted
 Rights clause in FAR 52.227-19.
  
 Gaussian, Inc.
 340 Quinnipiac St., Bldg. 40, Wallingford CT 06492
  
  
 ---------------------------------------------------------------
 Warning -- This program may not be used in any manner that
 competes with the business of Gaussian, Inc. or will provide
 assistance to any competitor of Gaussian, Inc.  The licensee
 of this program is prohibited from giving any competitor of
 Gaussian, Inc. access to this program.  By using this program,
 the user acknowledges that Gaussian, Inc. is engaged in the
 business of creating and licensing software in the field of
 computational chemistry and represents and warrants to the
 licensee that it is not a competitor of Gaussian, Inc. and that
 it will not use this program in any manner prohibited above.
 ---------------------------------------------------------------
  

 Cite this work as:
 Gaussian 09, Revision D.01,
 M. J. Frisch, G. W. Trucks, H. B. Schlegel, G. E. Scuseria, 
 M. A. Robb, J. R. Cheeseman, G. Scalmani, V. Barone, B. Mennucci, 
 G. A. Petersson, H. Nakatsuji, M. Caricato, X. Li, H. P. Hratchian, 
 A. F. Izmaylov, J. Bloino, G. Zheng, J. L. Sonnenberg, M. Hada, 
 M. Ehara, K. Toyota, R. Fukuda, J. Hasegawa, M. Ishida, T. Nakajima, 
 Y. Honda, O. Kitao, H. Nakai, T. Vreven, J. A. Montgomery, Jr., 
 J. E. Peralta, F. Ogliaro, M. Bearpark, J. J. Heyd, E. Brothers, 
 K. N. Kudin, V. N. Staroverov, T. Keith, R. Kobayashi, J. Normand, 
 K. Raghavachari, A. Rendell, J. C. Burant, S. S. Iyengar, J. Tomasi, 
 M. Cossi, N. Rega, J. M. Millam, M. Klene, J. E. Knox, J. B. Cross, 
 V. Bakken, C. Adamo, J. Jaramillo, R. Gomperts, R. E. Stratmann, 
 O. Yazyev, A. J. Austin, R. Cammi, C. Pomelli, J. W. Ochterski, 
 R. L. Martin, K. Morokuma, V. G. Zakrzewski, G. A. Voth, 
 P. Salvador, J. J. Dannenberg, S. Dapprich, A. D. Daniels, 
 O. Farkas, J. B. Foresman, J. V. Ortiz, J. Cioslowski, 
 and D. J. Fox, Gaussian, Inc., Wallingford CT, 2013.
 
 ******************************************
 Gaussian 09:  EM64L-G09RevD.01 24-Apr-2013
                 4-Nov-2019 
 ******************************************
 %mem=7Gb
 %nproc=4
 Will use up to    4 processors via shared memory.
 ----------------------------------------------------------------------
 #PBEPBE/gen scf=(maxcycle=500,conver=4) NMR=GIAO Scrf=(solvent=Dichlor
 omethane)
 ----------------------------------------------------------------------
 1/38=1/1;
 2/12=2,17=6,18=5,40=1/2;
 3/5=7,11=2,16=1,25=1,30=1,70=2201,72=9,74=1009/1,2,8,3;
 4//1;
 5/5=2,6=4,7=500,38=5,53=9/2;
 8/6=1,10=90,11=11/1;
 10/13=100,45=16/2;
 6/7=2,8=2,9=2,10=2,28=1/1;
 99/9=1/99;
 Leave Link    1 at Mon Nov  4 00:55:52 2019, MaxMem=   939524096 cpu:         0.2
 (Enter /scr/programas/g09/l101.exe)
 ------------
 estrutura 72
 ------------
 Symbolic Z-matrix:
 Charge =  0 Multiplicity = 1
 Pt                    0.07915  -0.03257  -0.01975 
 P                    -0.09331   2.37496   0.07942 
 P                     0.27052  -2.42762  -0.02877 
 C                    -0.60182   3.07249  -1.56143 
 H                    -1.48092   2.48773  -1.87368 
 H                     0.21329   2.80463  -2.2554 
 C                    -0.91583   4.56984  -1.62923 
 H                    -0.079     5.19484  -1.28052 
 H                    -1.12889   4.85623  -2.67256 
 H                    -1.80627   4.82487  -1.03356 
 C                    -1.40686   2.8623    1.31655 
 H                    -1.4096    2.07123   2.08282 
 C                     1.41195   3.34361   0.58209 
 H                     1.04859   4.31474   0.94881 
 H                     1.84131   2.82248   1.45241 
 C                     2.47725   3.57192  -0.49526 
 H                     3.32626   4.12246  -0.059 
 H                     2.86521   2.63168  -0.90739 
 H                     2.09229   4.17593  -1.33072 
 C                    -0.83882  -3.27831   1.18604 
 H                    -0.63816  -4.3593    1.10638 
 H                    -1.87021  -3.13537   0.82646 
 C                    -0.68655  -2.7972    2.63074 
 H                     0.33379  -2.95744   3.01318 
 H                    -0.92405  -1.7262    2.72419 
 H                    -1.37712  -3.34933   3.28684 
 C                     1.96561  -3.07417   0.35725 
 H                     2.6428   -2.62428  -0.38377 
 H                     2.2487   -2.6286    1.32356 
 C                     2.13242  -4.59516   0.39028 
 H                     3.18548  -4.84489   0.59871 
 H                     1.52417  -5.06682   1.17733 
 H                     1.87062  -5.06511  -0.57045 
 C                    -0.20074  -3.18377  -1.65071 
 H                    -0.06753  -4.27541  -1.56275 
 H                    -1.28292  -3.00539  -1.75582 
 C                     0.55656  -2.6321   -2.86134 
 H                     0.2119   -3.13046  -3.78099 
 H                     0.38188  -1.55059  -2.98028 
 H                     1.6437   -2.79627  -2.7858 
 Sn                   -2.6489   -0.22109  -0.07759 
 Cl                   -3.74156  -0.24548   2.11257 
 Cl                   -4.02029   1.50476  -1.1626 
 Cl                   -3.80428  -2.15107  -1.0583 
 C                    -1.32509   4.23447   1.99217 
 H                    -2.21923   4.37869   2.62024 
 H                    -0.44738   4.31931   2.65068 
 H                    -1.29376   5.0641    1.27037 
 H                    -2.35823   2.76388   0.76739 
 C                     2.1198    0.09494   0.02718 
 C                     2.86983   0.0253   -1.16657 
 C                     2.82371   0.21099   1.24327 
 C                     4.26396   0.06236  -1.15455 
 H                     2.3599   -0.06593  -2.12841 
 C                     4.21826   0.25328   1.27516 
 H                     2.27947   0.26078   2.1901 
 C                     4.92574   0.17637   0.07193 
 H                     4.84216   0.0057   -2.07682 
 H                     4.76247   0.34005   2.21561 
 O                     6.9872    0.14531  -0.97166 
 O                     6.94736   0.31453   1.18279 
 N                     6.39054   0.21501   0.09624 
 
 NAtoms=     62 NQM=       62 NQMF=       0 NMMI=      0 NMMIF=      0
                NMic=       0 NMicF=      0.
                    Isotopes and Nuclear Properties:
 (Nuclear quadrupole moments (NQMom) in fm**2, nuclear magnetic moments (NMagM)
  in nuclear magnetons)

  Atom         1           2           3           4           5           6           7           8           9          10
 IAtWgt=         195          31          31          12           1           1          12           1           1           1
 AtmWgt= 194.9648000  30.9737634  30.9737634  12.0000000   1.0078250   1.0078250  12.0000000   1.0078250   1.0078250   1.0078250
 NucSpn=           1           1           1           0           1           1           0           1           1           1
 AtZEff=   0.0000000   0.0000000   0.0000000   0.0000000   0.0000000   0.0000000   0.0000000   0.0000000   0.0000000   0.0000000
 NQMom=    0.0000000   0.0000000   0.0000000   0.0000000   0.0000000   0.0000000   0.0000000   0.0000000   0.0000000   0.0000000
 NMagM=    0.6095000   1.1316000   1.1316000   0.0000000   2.7928460   2.7928460   0.0000000   2.7928460   2.7928460   2.7928460
 AtZNuc=  78.0000000  15.0000000  15.0000000   6.0000000   1.0000000   1.0000000   6.0000000   1.0000000   1.0000000   1.0000000

  Atom        11          12          13          14          15          16          17          18          19          20
 IAtWgt=          12           1          12           1           1          12           1           1           1          12
 AtmWgt=  12.0000000   1.0078250  12.0000000   1.0078250   1.0078250  12.0000000   1.0078250   1.0078250   1.0078250  12.0000000
 NucSpn=           0           1           0           1           1           0           1           1           1           0
 AtZEff=   0.0000000   0.0000000   0.0000000   0.0000000   0.0000000   0.0000000   0.0000000   0.0000000   0.0000000   0.0000000
 NQMom=    0.0000000   0.0000000   0.0000000   0.0000000   0.0000000   0.0000000   0.0000000   0.0000000   0.0000000   0.0000000
 NMagM=    0.0000000   2.7928460   0.0000000   2.7928460   2.7928460   0.0000000   2.7928460   2.7928460   2.7928460   0.0000000
 AtZNuc=   6.0000000   1.0000000   6.0000000   1.0000000   1.0000000   6.0000000   1.0000000   1.0000000   1.0000000   6.0000000

  Atom        21          22          23          24          25          26          27          28          29          30
 IAtWgt=           1           1          12           1           1           1          12           1           1          12
 AtmWgt=   1.0078250   1.0078250  12.0000000   1.0078250   1.0078250   1.0078250  12.0000000   1.0078250   1.0078250  12.0000000
 NucSpn=           1           1           0           1           1           1           0           1           1           0
 AtZEff=   0.0000000   0.0000000   0.0000000   0.0000000   0.0000000   0.0000000   0.0000000   0.0000000   0.0000000   0.0000000
 NQMom=    0.0000000   0.0000000   0.0000000   0.0000000   0.0000000   0.0000000   0.0000000   0.0000000   0.0000000   0.0000000
 NMagM=    2.7928460   2.7928460   0.0000000   2.7928460   2.7928460   2.7928460   0.0000000   2.7928460   2.7928460   0.0000000
 AtZNuc=   1.0000000   1.0000000   6.0000000   1.0000000   1.0000000   1.0000000   6.0000000   1.0000000   1.0000000   6.0000000

  Atom        31          32          33          34          35          36          37          38          39          40
 IAtWgt=           1           1           1          12           1           1          12           1           1           1
 AtmWgt=   1.0078250   1.0078250   1.0078250  12.0000000   1.0078250   1.0078250  12.0000000   1.0078250   1.0078250   1.0078250
 NucSpn=           1           1           1           0           1           1           0           1           1           1
 AtZEff=   0.0000000   0.0000000   0.0000000   0.0000000   0.0000000   0.0000000   0.0000000   0.0000000   0.0000000   0.0000000
 NQMom=    0.0000000   0.0000000   0.0000000   0.0000000   0.0000000   0.0000000   0.0000000   0.0000000   0.0000000   0.0000000
 NMagM=    2.7928460   2.7928460   2.7928460   0.0000000   2.7928460   2.7928460   0.0000000   2.7928460   2.7928460   2.7928460
 AtZNuc=   1.0000000   1.0000000   1.0000000   6.0000000   1.0000000   1.0000000   6.0000000   1.0000000   1.0000000   1.0000000

  Atom        41          42          43          44          45          46          47          48          49          50
 IAtWgt=         118          35          35          35          12           1           1           1           1          12
 AtmWgt= 117.9018000  34.9688527  34.9688527  34.9688527  12.0000000   1.0078250   1.0078250   1.0078250   1.0078250  12.0000000
 NucSpn=           0           3           3           3           0           1           1           1           1           0
 AtZEff=   0.0000000   0.0000000   0.0000000   0.0000000   0.0000000   0.0000000   0.0000000   0.0000000   0.0000000   0.0000000
 NQMom=    0.0000000  -8.1650000  -8.1650000  -8.1650000   0.0000000   0.0000000   0.0000000   0.0000000   0.0000000   0.0000000
 NMagM=    0.0000000   0.8218740   0.8218740   0.8218740   0.0000000   2.7928460   2.7928460   2.7928460   2.7928460   0.0000000
 AtZNuc=  50.0000000  17.0000000  17.0000000  17.0000000   6.0000000   1.0000000   1.0000000   1.0000000   1.0000000   6.0000000

  Atom        51          52          53          54          55          56          57          58          59          60
 IAtWgt=          12          12          12           1          12           1          12           1           1          16
 AtmWgt=  12.0000000  12.0000000  12.0000000   1.0078250  12.0000000   1.0078250  12.0000000   1.0078250   1.0078250  15.9949146
 NucSpn=           0           0           0           1           0           1           0           1           1           0
 AtZEff=   0.0000000   0.0000000   0.0000000   0.0000000   0.0000000   0.0000000   0.0000000   0.0000000   0.0000000   0.0000000
 NQMom=    0.0000000   0.0000000   0.0000000   0.0000000   0.0000000   0.0000000   0.0000000   0.0000000   0.0000000   0.0000000
 NMagM=    0.0000000   0.0000000   0.0000000   2.7928460   0.0000000   2.7928460   0.0000000   2.7928460   2.7928460   0.0000000
 AtZNuc=   6.0000000   6.0000000   6.0000000   1.0000000   6.0000000   1.0000000   6.0000000   1.0000000   1.0000000   8.0000000

  Atom        61          62
 IAtWgt=          16          14
 AtmWgt=  15.9949146  14.0030740
 NucSpn=           0           2
 AtZEff=   0.0000000   0.0000000
 NQMom=    0.0000000   2.0440000
 NMagM=    0.0000000   0.4037610
 AtZNuc=   8.0000000   7.0000000
 Leave Link  101 at Mon Nov  4 00:55:53 2019, MaxMem=   939524096 cpu:         0.6
 (Enter /scr/programas/g09/l202.exe)
 Stoichiometry    C18H34Cl3NO2P2PtSn
 Framework group  C1[X(C18H34Cl3NO2P2PtSn)]
 Deg. of freedom   180
 Full point group                 C1      NOp   1
 Largest Abelian subgroup         C1      NOp   1
 Largest concise Abelian subgroup C1      NOp   1
                         Standard orientation:                         
 ---------------------------------------------------------------------
 Center     Atomic      Atomic             Coordinates (Angstroms)
 Number     Number       Type             X           Y           Z
 ---------------------------------------------------------------------
      1         78           0        0.079153   -0.032565   -0.019745
      2         15           0       -0.093314    2.374958    0.079417
      3         15           0        0.270521   -2.427615   -0.028773
      4          6           0       -0.601824    3.072487   -1.561429
      5          1           0       -1.480919    2.487731   -1.873675
      6          1           0        0.213292    2.804632   -2.255396
      7          6           0       -0.915826    4.569845   -1.629230
      8          1           0       -0.078997    5.194837   -1.280523
      9          1           0       -1.128889    4.856231   -2.672559
     10          1           0       -1.806270    4.824868   -1.033560
     11          6           0       -1.406860    2.862301    1.316553
     12          1           0       -1.409603    2.071234    2.082824
     13          6           0        1.411948    3.343610    0.582085
     14          1           0        1.048592    4.314740    0.948814
     15          1           0        1.841307    2.822476    1.452412
     16          6           0        2.477251    3.571915   -0.495255
     17          1           0        3.326260    4.122459   -0.058995
     18          1           0        2.865207    2.631679   -0.907385
     19          1           0        2.092288    4.175935   -1.330722
     20          6           0       -0.838816   -3.278309    1.186036
     21          1           0       -0.638160   -4.359304    1.106381
     22          1           0       -1.870209   -3.135365    0.826458
     23          6           0       -0.686549   -2.797198    2.630737
     24          1           0        0.333787   -2.957441    3.013184
     25          1           0       -0.924052   -1.726203    2.724185
     26          1           0       -1.377117   -3.349331    3.286839
     27          6           0        1.965605   -3.074166    0.357254
     28          1           0        2.642802   -2.624279   -0.383774
     29          1           0        2.248698   -2.628603    1.323559
     30          6           0        2.132417   -4.595163    0.390278
     31          1           0        3.185478   -4.844890    0.598714
     32          1           0        1.524173   -5.066824    1.177327
     33          1           0        1.870617   -5.065113   -0.570454
     34          6           0       -0.200744   -3.183770   -1.650710
     35          1           0       -0.067534   -4.275407   -1.562747
     36          1           0       -1.282922   -3.005386   -1.755819
     37          6           0        0.556564   -2.632095   -2.861337
     38          1           0        0.211904   -3.130464   -3.780989
     39          1           0        0.381879   -1.550593   -2.980280
     40          1           0        1.643697   -2.796272   -2.785801
     41         50           0       -2.648904   -0.221088   -0.077589
     42         17           0       -3.741558   -0.245482    2.112570
     43         17           0       -4.020288    1.504761   -1.162595
     44         17           0       -3.804276   -2.151066   -1.058296
     45          6           0       -1.325088    4.234469    1.992169
     46          1           0       -2.219227    4.378693    2.620240
     47          1           0       -0.447384    4.319314    2.650682
     48          1           0       -1.293762    5.064096    1.270373
     49          1           0       -2.358226    2.763878    0.767394
     50          6           0        2.119804    0.094938    0.027177
     51          6           0        2.869826    0.025296   -1.166566
     52          6           0        2.823705    0.210986    1.243273
     53          6           0        4.263957    0.062361   -1.154551
     54          1           0        2.359897   -0.065925   -2.128411
     55          6           0        4.218264    0.253279    1.275157
     56          1           0        2.279466    0.260784    2.190100
     57          6           0        4.925742    0.176367    0.071929
     58          1           0        4.842159    0.005698   -2.076821
     59          1           0        4.762467    0.340050    2.215610
     60          8           0        6.987201    0.145309   -0.971656
     61          8           0        6.947359    0.314533    1.182791
     62          7           0        6.390542    0.215013    0.096240
 ---------------------------------------------------------------------
 Rotational constants (GHZ):      0.1385657      0.0747625      0.0581225
 Leave Link  202 at Mon Nov  4 00:55:53 2019, MaxMem=   939524096 cpu:         0.0
 (Enter /scr/programas/g09/l301.exe)
 General basis read from cards:  (5D, 7F)
 Centers:       5      6      8      9     10     12     14     15     17     18
 Centers:      19     21     22     24     25     26     28     29     31     32
 Centers:      33     35     36     38     39     40     46     47     48     49
 Centers:      54     56     58     59
 S 5 1.00
     Exponent=  2.8295215633D+02 Coefficients=  4.3000000000D-04
     Exponent=  8.7062201949D+01 Coefficients=  5.1000000000D-04
     Exponent=  2.6788369830D+01 Coefficients=  6.1600000000D-03
     Exponent=  8.2425753324D+00 Coefficients=  1.3030000000D-02
     Exponent=  2.5361770254D+00 Coefficients=  9.9490000000D-02
 S 1 1.00
     Exponent=  7.8036216165D-01 Coefficients=  1.0000000000D+00
 S 1 1.00
     Exponent=  2.4011143435D-01 Coefficients=  1.0000000000D+00
 P 1 1.00
     Exponent=  8.8150000000D-01 Coefficients=  1.0000000000D+00
 P 1 1.00
     Exponent=  1.7989200000D-01 Coefficients=  1.0000000000D+00
 ****
 Centers:       4      7     11     13     16     20     23     27     30     34
 Centers:      37     45     50     51     52     53     55     57
 S 6 1.00
     Exponent=  8.8461235339D+03 Coefficients=  5.3000000000D-04
     Exponent=  2.9487078446D+03 Coefficients=  7.7000000000D-04
     Exponent=  9.8290261488D+02 Coefficients=  4.0500000000D-03
     Exponent=  3.2763420496D+02 Coefficients=  1.4030000000D-02
     Exponent=  1.0921140165D+02 Coefficients=  5.3450000000D-02
     Exponent=  3.6403800551D+01 Coefficients=  1.7027000000D-01
 S 1 1.00
     Exponent=  1.2134600184D+01 Coefficients=  1.0000000000D+00
 S 1 1.00
     Exponent=  4.0448667279D+00 Coefficients=  1.0000000000D+00
 S 1 1.00
     Exponent=  1.3482889093D+00 Coefficients=  1.0000000000D+00
 S 1 1.00
     Exponent=  4.4942963643D-01 Coefficients=  1.0000000000D+00
 S 1 1.00
     Exponent=  1.4980987881D-01 Coefficients=  1.0000000000D+00
 P 4 1.00
     Exponent=  3.7294093393D+01 Coefficients=  3.9600000000D-03
     Exponent=  1.1475105659D+01 Coefficients=  1.8890000000D-02
     Exponent=  3.5308017414D+00 Coefficients=  9.4610000000D-02
     Exponent=  1.0864005358D+00 Coefficients=  3.1889000000D-01
 P 1 1.00
     Exponent=  3.3427708794D-01 Coefficients=  1.0000000000D+00
 P 1 1.00
     Exponent=  1.0285448860D-01 Coefficients=  1.0000000000D+00
 D 1 1.00
     Exponent=  4.7750000000D-01 Coefficients=  1.0000000000D+00
 D 1 1.00
     Exponent=  1.1998000000D-01 Coefficients=  1.0000000000D+00
 ****
 Centers:      62
 S 6 1.00
     Exponent=  1.2238326969D+04 Coefficients=  5.6000000000D-04
     Exponent=  4.0794423230D+03 Coefficients=  7.7000000000D-04
     Exponent=  1.3598141077D+03 Coefficients=  4.0600000000D-03
     Exponent=  4.5327136922D+02 Coefficients=  1.3910000000D-02
     Exponent=  1.5109045641D+02 Coefficients=  5.2990000000D-02
     Exponent=  5.0363485469D+01 Coefficients=  1.6952000000D-01
 S 1 1.00
     Exponent=  1.6787828490D+01 Coefficients=  1.0000000000D+00
 S 1 1.00
     Exponent=  5.5959428299D+00 Coefficients=  1.0000000000D+00
 S 1 1.00
     Exponent=  1.8653142766D+00 Coefficients=  1.0000000000D+00
 S 1 1.00
     Exponent=  6.2177142554D-01 Coefficients=  1.0000000000D+00
 S 1 1.00
     Exponent=  2.0725714185D-01 Coefficients=  1.0000000000D+00
 P 4 1.00
     Exponent=  5.4142548249D+01 Coefficients=  3.9700000000D-03
     Exponent=  1.6659245615D+01 Coefficients=  1.9540000000D-02
     Exponent=  5.1259217277D+00 Coefficients=  9.9790000000D-02
     Exponent=  1.5772066854D+00 Coefficients=  3.2845000000D-01
 P 1 1.00
     Exponent=  4.8529436475D-01 Coefficients=  1.0000000000D+00
 P 1 1.00
     Exponent=  1.4932134300D-01 Coefficients=  1.0000000000D+00
 D 1 1.00
     Exponent=  4.7700000000D-01 Coefficients=  1.0000000000D+00
 D 1 1.00
     Exponent=  1.5026000000D-01 Coefficients=  1.0000000000D+00
 ****
 Centers:      60     61
 S 6 1.00
     Exponent=  1.6178118231D+04 Coefficients=  6.0000000000D-04
     Exponent=  5.3927060771D+03 Coefficients=  7.8000000000D-04
     Exponent=  1.7975686924D+03 Coefficients=  4.1000000000D-03
     Exponent=  5.9918956413D+02 Coefficients=  1.3880000000D-02
     Exponent=  1.9972985471D+02 Coefficients=  5.2770000000D-02
     Exponent=  6.6576618236D+01 Coefficients=  1.6924000000D-01
 S 1 1.00
     Exponent=  2.2192206079D+01 Coefficients=  1.0000000000D+00
 S 1 1.00
     Exponent=  7.3974020263D+00 Coefficients=  1.0000000000D+00
 S 1 1.00
     Exponent=  2.4658006754D+00 Coefficients=  1.0000000000D+00
 S 1 1.00
     Exponent=  8.2193355847D-01 Coefficients=  1.0000000000D+00
 S 1 1.00
     Exponent=  2.7397785282D-01 Coefficients=  1.0000000000D+00
 P 4 1.00
     Exponent=  7.3854398670D+01 Coefficients=  4.0200000000D-03
     Exponent=  2.2724430360D+01 Coefficients=  2.0130000000D-02
     Exponent=  6.9921324184D+00 Coefficients=  1.0470000000D-01
     Exponent=  2.1514253595D+00 Coefficients=  3.3605000000D-01
 P 1 1.00
     Exponent=  6.6197703370D-01 Coefficients=  1.0000000000D+00
 P 1 1.00
     Exponent=  2.0368524114D-01 Coefficients=  1.0000000000D+00
 D 1 1.00
     Exponent=  9.2880000000D-01 Coefficients=  1.0000000000D+00
 D 1 1.00
     Exponent=  2.2975000000D-01 Coefficients=  1.0000000000D+00
 ****
 Centers:       2      3
 S 7 1.00
     Exponent=  5.9538004301D+04 Coefficients=  9.5000000000D-04
     Exponent=  2.1650183382D+04 Coefficients=  6.1000000000D-04
     Exponent=  7.8727939572D+03 Coefficients=  3.7500000000D-03
     Exponent=  2.8628341663D+03 Coefficients=  9.6300000000D-03
     Exponent=  1.0410306059D+03 Coefficients=  3.2430000000D-02
     Exponent=  3.7855658397D+02 Coefficients=  9.9500000000D-02
     Exponent=  1.3765693962D+02 Coefficients=  2.6570000000D-01
 S 1 1.00
     Exponent=  5.0057068954D+01 Coefficients=  1.0000000000D+00
 S 1 1.00
     Exponent=  1.8202570529D+01 Coefficients=  1.0000000000D+00
 S 1 1.00
     Exponent=  6.6191165560D+00 Coefficients=  1.0000000000D+00
 S 1 1.00
     Exponent=  2.4069514749D+00 Coefficients=  1.0000000000D+00
 S 1 1.00
     Exponent=  8.7525508178D-01 Coefficients=  1.0000000000D+00
 S 1 1.00
     Exponent=  3.1827457519D-01 Coefficients=  1.0000000000D+00
 S 1 1.00
     Exponent=  1.1573620916D-01 Coefficients=  1.0000000000D+00
 S 1 1.00
     Exponent=  4.2085894240D-02 Coefficients=  1.0000000000D+00
 P 5 1.00
     Exponent=  4.8799672315D+02 Coefficients=  2.1600000000D-03
     Exponent=  1.6266557438D+02 Coefficients=  9.7900000000D-03
     Exponent=  5.4221858128D+01 Coefficients=  5.4850000000D-02
     Exponent=  1.8073952709D+01 Coefficients=  2.1770000000D-01
     Exponent=  6.0246509031D+00 Coefficients=  4.8978000000D-01
 P 1 1.00
     Exponent=  2.0082169677D+00 Coefficients=  1.0000000000D+00
 P 1 1.00
     Exponent=  6.6940565590D-01 Coefficients=  1.0000000000D+00
 P 1 1.00
     Exponent=  2.2313521863D-01 Coefficients=  1.0000000000D+00
 P 1 1.00
     Exponent=  7.4378406211D-02 Coefficients=  1.0000000000D+00
 P 1 1.00
     Exponent=  2.4792802070D-02 Coefficients=  1.0000000000D+00
 D 1 1.00
     Exponent=  3.5395000000D-01 Coefficients=  1.0000000000D+00
 D 1 1.00
     Exponent=  8.9098000000D-02 Coefficients=  1.0000000000D+00
 ****
 Centers:      42     43     44
 S 7 1.00
     Exponent=  7.7142817164D+04 Coefficients=  1.0600000000D-03
     Exponent=  2.8051933514D+04 Coefficients=  6.4000000000D-04
     Exponent=  1.0200703096D+04 Coefficients=  3.9600000000D-03
     Exponent=  3.7093465804D+03 Coefficients=  9.8300000000D-03
     Exponent=  1.3488533020D+03 Coefficients=  3.2690000000D-02
     Exponent=  4.9049210981D+02 Coefficients=  9.9520000000D-02
     Exponent=  1.7836076720D+02 Coefficients=  2.6555000000D-01
 S 1 1.00
     Exponent=  6.4858460801D+01 Coefficients=  1.0000000000D+00
 S 1 1.00
     Exponent=  2.3584894837D+01 Coefficients=  1.0000000000D+00
 S 1 1.00
     Exponent=  8.5763253951D+00 Coefficients=  1.0000000000D+00
 S 1 1.00
     Exponent=  3.1186637801D+00 Coefficients=  1.0000000000D+00
 S 1 1.00
     Exponent=  1.1340595564D+00 Coefficients=  1.0000000000D+00
 S 1 1.00
     Exponent=  4.1238529323D-01 Coefficients=  1.0000000000D+00
 S 1 1.00
     Exponent=  1.4995828845D-01 Coefficients=  1.0000000000D+00
 S 1 1.00
     Exponent=  5.4530286708D-02 Coefficients=  1.0000000000D+00
 P 5 1.00
     Exponent=  6.9498536057D+02 Coefficients=  2.0000000000D-03
     Exponent=  2.3166178686D+02 Coefficients=  8.9500000000D-03
     Exponent=  7.7220595619D+01 Coefficients=  5.1130000000D-02
     Exponent=  2.5740198540D+01 Coefficients=  2.1011000000D-01
     Exponent=  8.5800661799D+00 Coefficients=  4.9738000000D-01
 P 1 1.00
     Exponent=  2.8600220600D+00 Coefficients=  1.0000000000D+00
 P 1 1.00
     Exponent=  9.5334068665D-01 Coefficients=  1.0000000000D+00
 P 1 1.00
     Exponent=  3.1778022888D-01 Coefficients=  1.0000000000D+00
 P 1 1.00
     Exponent=  1.0592674296D-01 Coefficients=  1.0000000000D+00
 P 1 1.00
     Exponent=  3.5308914320D-02 Coefficients=  1.0000000000D+00
 D 1 1.00
     Exponent=  5.5696000000D-01 Coefficients=  1.0000000000D+00
 D 1 1.00
     Exponent=  1.5619100000D-01 Coefficients=  1.0000000000D+00
 ****
 Centers:      41
 S 8 1.00
     Exponent=  7.5448214551D+05 Coefficients=  4.4300000000D-03
     Exponent=  3.3532539800D+05 Coefficients=  1.9800000000D-03
     Exponent=  1.4903351022D+05 Coefficients=  9.0500000000D-03
     Exponent=  6.6237115655D+04 Coefficients=  4.8700000000D-03
     Exponent=  2.9438718069D+04 Coefficients=  2.0770000000D-02
     Exponent=  1.3083874697D+04 Coefficients=  3.2900000000D-02
     Exponent=  5.8150554210D+03 Coefficients=  7.7010000000D-02
     Exponent=  2.5844690760D+03 Coefficients=  1.5160000000D-01
 S 1 1.00
     Exponent=  1.1486529227D+03 Coefficients=  1.0000000000D+00
 S 1 1.00
     Exponent=  5.1051241008D+02 Coefficients=  1.0000000000D+00
 S 1 1.00
     Exponent=  2.2689440448D+02 Coefficients=  1.0000000000D+00
 S 1 1.00
     Exponent=  1.0084195755D+02 Coefficients=  1.0000000000D+00
 S 1 1.00
     Exponent=  4.4818647798D+01 Coefficients=  1.0000000000D+00
 S 1 1.00
     Exponent=  1.9919399021D+01 Coefficients=  1.0000000000D+00
 S 1 1.00
     Exponent=  8.8530662317D+00 Coefficients=  1.0000000000D+00
 S 1 1.00
     Exponent=  3.9346961030D+00 Coefficients=  1.0000000000D+00
 S 1 1.00
     Exponent=  1.7487538235D+00 Coefficients=  1.0000000000D+00
 S 1 1.00
     Exponent=  7.7722392158D-01 Coefficients=  1.0000000000D+00
 S 1 1.00
     Exponent=  3.4543285403D-01 Coefficients=  1.0000000000D+00
 S 1 1.00
     Exponent=  1.5352571290D-01 Coefficients=  1.0000000000D+00
 S 1 1.00
     Exponent=  6.8233650180D-02 Coefficients=  1.0000000000D+00
 S 1 1.00
     Exponent=  1.3478251887D-02 Coefficients=  1.0000000000D+00
 P 5 1.00
     Exponent=  1.0090658304D+04 Coefficients=  2.7500000000D-03
     Exponent=  4.0362633217D+03 Coefficients=  4.1800000000D-03
     Exponent=  1.6145053287D+03 Coefficients=  2.0890000000D-02
     Exponent=  6.4580213147D+02 Coefficients=  7.1370000000D-02
     Exponent=  2.5832085259D+02 Coefficients=  2.2613000000D-01
 P 1 1.00
     Exponent=  1.0332834104D+02 Coefficients=  1.0000000000D+00
 P 1 1.00
     Exponent=  4.1331336414D+01 Coefficients=  1.0000000000D+00
 P 1 1.00
     Exponent=  1.6532534566D+01 Coefficients=  1.0000000000D+00
 P 1 1.00
     Exponent=  6.6130138263D+00 Coefficients=  1.0000000000D+00
 P 1 1.00
     Exponent=  2.6452055305D+00 Coefficients=  1.0000000000D+00
 P 1 1.00
     Exponent=  1.0580822122D+00 Coefficients=  1.0000000000D+00
 P 1 1.00
     Exponent=  4.2323288488D-01 Coefficients=  1.0000000000D+00
 P 1 1.00
     Exponent=  1.6929315395D-01 Coefficients=  1.0000000000D+00
 P 1 1.00
     Exponent=  6.7717261581D-02 Coefficients=  1.0000000000D+00
 P 1 1.00
     Exponent=  2.7086904632D-02 Coefficients=  1.0000000000D+00
 P 1 1.00
     Exponent=  1.0834761853D-02 Coefficients=  1.0000000000D+00
 D 4 1.00
     Exponent=  5.5430250651D+02 Coefficients=  4.3700000000D-03
     Exponent=  2.0156454782D+02 Coefficients=  2.5110000000D-02
     Exponent=  7.3296199207D+01 Coefficients=  1.3316000000D-01
     Exponent=  2.6653163348D+01 Coefficients=  3.8900000000D-01
 D 1 1.00
     Exponent=  9.6920593993D+00 Coefficients=  1.0000000000D+00
 D 1 1.00
     Exponent=  3.5243852361D+00 Coefficients=  1.0000000000D+00
 D 1 1.00
     Exponent=  1.2815946313D+00 Coefficients=  1.0000000000D+00
 D 1 1.00
     Exponent=  4.6603441139D-01 Coefficients=  1.0000000000D+00
 D 1 1.00
     Exponent=  1.6946705869D-01 Coefficients=  1.0000000000D+00
 F 1 1.00
     Exponent=  1.3140000000D+00 Coefficients=  1.0000000000D+00
 F 1 1.00
     Exponent=  1.9993000000D-01 Coefficients=  1.0000000000D+00
 ****
 Centers:       1
 S 9 1.00
     Exponent=  2.1644816090D+06 Coefficients=  1.2320000000D-02
     Exponent=  1.0822408045D+06 Coefficients=  1.2970000000D-02
     Exponent=  5.4112040224D+05 Coefficients=  2.6370000000D-02
     Exponent=  2.7056020112D+05 Coefficients=  9.0400000000D-03
     Exponent=  1.3528010056D+05 Coefficients=  3.4980000000D-02
     Exponent=  6.7640050280D+04 Coefficients=  1.2220000000D-02
     Exponent=  3.3820025140D+04 Coefficients=  6.0520000000D-02
     Exponent=  1.6910012570D+04 Coefficients=  6.4930000000D-02
     Exponent=  8.4550062850D+03 Coefficients=  1.3819000000D-01
 S 1 1.00
     Exponent=  4.2275031425D+03 Coefficients=  1.0000000000D+00
 S 1 1.00
     Exponent=  2.1137515713D+03 Coefficients=  1.0000000000D+00
 S 1 1.00
     Exponent=  1.0568757856D+03 Coefficients=  1.0000000000D+00
 S 1 1.00
     Exponent=  5.2843789281D+02 Coefficients=  1.0000000000D+00
 S 1 1.00
     Exponent=  2.6421894641D+02 Coefficients=  1.0000000000D+00
 S 1 1.00
     Exponent=  1.3210947320D+02 Coefficients=  1.0000000000D+00
 S 1 1.00
     Exponent=  6.6054736602D+01 Coefficients=  1.0000000000D+00
 S 1 1.00
     Exponent=  3.3027368301D+01 Coefficients=  1.0000000000D+00
 S 1 1.00
     Exponent=  1.6513684150D+01 Coefficients=  1.0000000000D+00
 S 1 1.00
     Exponent=  8.2568420752D+00 Coefficients=  1.0000000000D+00
 S 1 1.00
     Exponent=  4.1284210376D+00 Coefficients=  1.0000000000D+00
 S 1 1.00
     Exponent=  2.0642105188D+00 Coefficients=  1.0000000000D+00
 S 1 1.00
     Exponent=  1.0321052594D+00 Coefficients=  1.0000000000D+00
 S 1 1.00
     Exponent=  5.1605262970D-01 Coefficients=  1.0000000000D+00
 S 1 1.00
     Exponent=  2.5802631485D-01 Coefficients=  1.0000000000D+00
 S 1 1.00
     Exponent=  1.2901315743D-01 Coefficients=  1.0000000000D+00
 S 1 1.00
     Exponent=  6.4506578713D-02 Coefficients=  1.0000000000D+00
 P 7 1.00
     Exponent=  3.2357915258D+04 Coefficients=  5.0200000000D-03
     Exponent=  1.4381295670D+04 Coefficients=  2.0200000000D-03
     Exponent=  6.3916869645D+03 Coefficients=  1.8070000000D-02
     Exponent=  2.8407497620D+03 Coefficients=  3.6620000000D-02
     Exponent=  1.2625554498D+03 Coefficients=  1.1172000000D-01
     Exponent=  5.6113575545D+02 Coefficients=  2.5586000000D-01
     Exponent=  2.4939366909D+02 Coefficients=  4.2608000000D-01
 P 1 1.00
     Exponent=  1.1084163071D+02 Coefficients=  1.0000000000D+00
 P 1 1.00
     Exponent=  4.9262946981D+01 Coefficients=  1.0000000000D+00
 P 1 1.00
     Exponent=  2.1894643103D+01 Coefficients=  1.0000000000D+00
 P 1 1.00
     Exponent=  9.7309524900D+00 Coefficients=  1.0000000000D+00
 P 1 1.00
     Exponent=  4.3248677733D+00 Coefficients=  1.0000000000D+00
 P 1 1.00
     Exponent=  1.9221634548D+00 Coefficients=  1.0000000000D+00
 P 1 1.00
     Exponent=  8.5429486881D-01 Coefficients=  1.0000000000D+00
 P 1 1.00
     Exponent=  3.7968660836D-01 Coefficients=  1.0000000000D+00
 P 1 1.00
     Exponent=  1.6874960372D-01 Coefficients=  1.0000000000D+00
 P 1 1.00
     Exponent=  7.4999823874D-02 Coefficients=  1.0000000000D+00
 P 1 1.00
     Exponent=  3.3333255055D-02 Coefficients=  1.0000000000D+00
 D 5 1.00
     Exponent=  1.9119003508D+03 Coefficients=  4.3300000000D-03
     Exponent=  7.6476014031D+02 Coefficients=  1.7780000000D-02
     Exponent=  3.0590405613D+02 Coefficients=  8.9710000000D-02
     Exponent=  1.2236162245D+02 Coefficients=  3.1123000000D-01
     Exponent=  4.8944648980D+01 Coefficients=  5.3206000000D-01
 D 1 1.00
     Exponent=  1.9577859592D+01 Coefficients=  1.0000000000D+00
 D 1 1.00
     Exponent=  7.8311438368D+00 Coefficients=  1.0000000000D+00
 D 1 1.00
     Exponent=  3.1324575347D+00 Coefficients=  1.0000000000D+00
 D 1 1.00
     Exponent=  1.2529830139D+00 Coefficients=  1.0000000000D+00
 D 1 1.00
     Exponent=  5.0119320556D-01 Coefficients=  1.0000000000D+00
 D 1 1.00
     Exponent=  2.0047728222D-01 Coefficients=  1.0000000000D+00
 D 1 1.00
     Exponent=  8.0190912889D-02 Coefficients=  1.0000000000D+00
 D 1 1.00
     Exponent=  3.2076365156D-02 Coefficients=  1.0000000000D+00
 F 4 1.00
     Exponent=  8.2289680979D+01 Coefficients=  6.1870000000D-02
     Exponent=  2.9923520356D+01 Coefficients=  2.4823000000D-01
     Exponent=  1.0881280130D+01 Coefficients=  4.9956000000D-01
     Exponent=  3.9568291380D+00 Coefficients=  4.0380000000D-01
 F 1 1.00
     Exponent=  1.4388469593D+00 Coefficients=  1.0000000000D+00
 F 1 1.00
     Exponent=  5.2321707610D-01 Coefficients=  1.0000000000D+00
 G 1 1.00
     Exponent=  2.6700000000D+00 Coefficients=  1.0000000000D+00
 G 1 1.00
     Exponent=  9.0960000000D-01 Coefficients=  1.0000000000D+00
 ****
 Ernie: Thresh=  0.10000D-02 Tol=  0.10000D-05 Strict=F.
 There are  1343 symmetry adapted cartesian basis functions of A   symmetry.
 There are  1249 symmetry adapted basis functions of A   symmetry.
  1249 basis functions,  1980 primitive gaussians,  1343 cartesian basis functions
   187 alpha electrons      187 beta electrons
       nuclear repulsion energy      8264.4611145313 Hartrees.
 IExCor= 1009 DFT=T Ex=PBE Corr=PBE ExCW=0 ScaHFX=  0.000000
 ScaDFX=  1.000000  1.000000  1.000000  1.000000 ScalE2=  1.000000  1.000000
 IRadAn=      0 IRanWt=     -1 IRanGd=            0 ICorTp=0 IEmpDi=  4
 NAtoms=   62 NActive=   62 NUniq=   62 SFac= 1.00D+00 NAtFMM=   60 NAOKFM=T Big=T
 Integral buffers will be    131072 words long.
 Raffenetti 2 integral format.
 Two-electron integral symmetry is turned on.
 ------------------------------------------------------------------------------
 Polarizable Continuum Model (PCM)
 =================================
 Model                : PCM (using non-symmetric T matrix).
 Atomic radii         : UFF (Universal Force Field).
 Polarization charges : Total charges.
 Charge compensation  : None.
 Solution method      : On-the-fly selection.
 Cavity type          : Scaled VdW (van der Waals Surface) (Alpha=1.100).
 Cavity algorithm     : GePol (No added spheres)
                        Default sphere list used, NSphG=   62.
                        Lebedev-Laikov grids with approx.  5.0 points / Ang**2.
                        Smoothing algorithm: Karplus/York (Gamma=1.0000).
                        Polarization charges: spherical gaussians, with
                                              point-specific exponents (IZeta= 3).
                        Self-potential: point-specific (ISelfS= 7).
                        Self-field    : sphere-specific E.n sum rule (ISelfD= 2).
 Solvent              : Dichloromethane, Eps=   8.930000 Eps(inf)=   2.028346
 ------------------------------------------------------------------------------
 GePol: Number of generator spheres                  =      62
 GePol: Total number of spheres                      =      62
 GePol: Number of exposed spheres                    =      62 (100.00%)
 GePol: Number of points                             =    4415
 GePol: Average weight of points                     =       0.13
 GePol: Minimum weight of points                     =   0.29D-11
 GePol: Maximum weight of points                     =    0.21838
 GePol: Number of points with low weight             =     318
 GePol: Fraction of low-weight points (<1% of avg)   =       7.20%
 GePol: Cavity surface area                          =    583.031 Ang**2
 GePol: Cavity volume                                =    701.046 Ang**3
 Leave Link  301 at Mon Nov  4 00:55:53 2019, MaxMem=   939524096 cpu:         1.2
 (Enter /scr/programas/g09/l302.exe)
 NPDir=0 NMtPBC=     1 NCelOv=     1 NCel=       1 NClECP=     1 NCelD=      1
         NCelK=      1 NCelE2=     1 NClLst=     1 CellRange=     0.0.
 One-electron integrals computed using PRISM.
 NBasis=  1249 RedAO= T EigKep=  1.31D-06  NBF=  1249
 NBsUse=  1249 1.00D-06 EigRej= -1.00D+00 NBFU=  1249
 Precomputing XC quadrature grid using
 IXCGrd= 4 IRadAn=           0 IRanWt=          -1 IRanGd=           0 AccXCQ= 0.00D+00.
 Defaulting to unpruned grid for atomic number  78.
 Defaulting to unpruned grid for atomic number  50.
 Generated NRdTot=       0 NPtTot=           0 NUsed=           0 NTot=          32
 NSgBfM=  1174  1174  1174  1177  1180 MxSgAt=    62 MxSgA2=    62.
 Leave Link  302 at Mon Nov  4 00:56:02 2019, MaxMem=   939524096 cpu:        34.3
 (Enter /scr/programas/g09/l308.exe)
 Leave Link  308 at Mon Nov  4 00:56:03 2019, MaxMem=   939524096 cpu:         3.0
 (Enter /scr/programas/g09/l303.exe)
 DipDrv:  MaxL=1.
 Leave Link  303 at Mon Nov  4 00:56:03 2019, MaxMem=   939524096 cpu:         1.8
 (Enter /scr/programas/g09/l401.exe)
 ExpMin= 1.08D-02 ExpMax= 2.16D+06 ExpMxC= 2.16D+06 IAcc=4 IRadAn=    199590 AccDes= 0.00D+00
 Harris functional with IExCor= 1009 and IRadAn=  199590 diagonalized for initial guess.
 HarFok:  IExCor= 1009 AccDes= 0.00D+00 IRadAn=    199590 IDoV= 1 UseB2=F ITyADJ=14
 ICtDFT=  3500011 ScaDFX=  1.000000  1.000000  1.000000  1.000000
 FoFCou: FMM=F IPFlag=           0 FMFlag=      100000 FMFlg1=        2001
         NFxFlg=           0 DoJE=T BraDBF=F KetDBF=T FulRan=T
         wScrn=  0.000000 ICntrl=     500 IOpCl=  0 I1Cent=   200000004 NGrid=           0
         NMat0=    1 NMatS0=      1 NMatT0=    0 NMatD0=    1 NMtDS0=    0 NMtDT0=    0
 Petite list used in FoFCou.
 Harris En= -26078.6920809897    
 JPrj=0 DoOrth=F DoCkMO=F.
 Leave Link  401 at Mon Nov  4 01:01:58 2019, MaxMem=   939524096 cpu:      1408.0
 (Enter /scr/programas/g09/l502.exe)
 Closed shell SCF:
 Using DIIS extrapolation, IDIIS=  1040.
 Integral symmetry usage will be decided dynamically.
 IVT=     5683027 IEndB=     5683027 NGot=   939524096 MDV=   935897062
 LenX=   935897062 LenY=   934092070
 Requested convergence on RMS density matrix=1.00D-04 within 500 cycles.
 Requested convergence on MAX density matrix=1.00D-02.
 Requested convergence on             energy=1.00D-02.
 No special actions if energy rises.
 Fock matrices will be formed incrementally for  20 cycles.

 Cycle   1  Pass 1  IDiag  1:
 FoFJK:  IHMeth= 1 ICntrl=     500 DoSepK=F KAlg= 0 I1Cent=   0 FoldK=F
 IRaf= 710000000 NMat=   1 IRICut=       1 DoRegI=T DoRafI=F ISym2E= 0.
 FoFCou: FMM=T IPFlag=           0 FMFlag=      100000 FMFlg1=        2001
         NFxFlg=           0 DoJE=T BraDBF=F KetDBF=F FulRan=T
         wScrn=  0.000000 ICntrl=     500 IOpCl=  0 I1Cent=           0 NGrid=           0
         NMat0=    1 NMatS0=      1 NMatT0=    0 NMatD0=    1 NMtDS0=    0 NMtDT0=    0
 Symmetry not used in FoFCou.
 FMM levels:  10  Number of levels for PrismC:   9
 Defaulting to unpruned grid for atomic number  78.
 Defaulting to unpruned grid for atomic number  78.
 Defaulting to unpruned grid for atomic number  78.
 Defaulting to unpruned grid for atomic number  78.
 Inv3:  Mode=1 IEnd=    58476675.
 Iteration    1 A*A^-1 deviation from unit magnitude is 8.66D-15 for   3525.
 Iteration    1 A*A^-1 deviation from orthogonality  is 8.75D-15 for   2010   1873.
 Iteration    1 A^-1*A deviation from unit magnitude is 9.21D-15 for   2329.
 Iteration    1 A^-1*A deviation from orthogonality  is 6.36D-13 for   2885   2862.
 E= -26059.0576984453    
 DIIS: error= 3.01D-01 at cycle   1 NSaved=   1.
 NSaved= 1 IEnMin= 1 EnMin= -26059.0576984453     IErMin= 1 ErrMin= 3.01D-01
 ErrMax= 3.01D-01  0.00D+00 EMaxC= 1.00D-01 BMatC= 3.34D+02 BMatP= 3.34D+02
 IDIUse=3 WtCom= 0.00D+00 WtEn= 1.00D+00
 Coeff-Com:  0.100D+01
 Coeff-En:   0.100D+01
 Coeff:      0.100D+01
 Gap=     0.592 Goal=   None    Shift=    0.000
 GapD=    0.592 DampG=2.000 DampE=0.125 DampFc=0.2500 IDamp=-1.
 Damping current iteration by 2.50D-01
 RMSDP=1.50D-02 MaxDP=2.53D+00              OVMax= 8.02D-01

 Cycle   2  Pass 1  IDiag  1:
 RMSU=  3.19D-03    CP:  1.12D+00
 E= -26060.7893469673     Delta-E=       -1.731648521905 Rises=F Damp=T
 DIIS: error= 2.09D-01 at cycle   2 NSaved=   2.
 NSaved= 2 IEnMin= 2 EnMin= -26060.7893469673     IErMin= 2 ErrMin= 2.09D-01
 ErrMax= 2.09D-01  0.00D+00 EMaxC= 1.00D-01 BMatC= 1.61D+02 BMatP= 3.34D+02
 IDIUse=3 WtCom= 0.00D+00 WtEn= 1.00D+00
 Coeff-Com: -0.199D+01 0.299D+01
 Coeff-En:   0.000D+00 0.100D+01
 Coeff:      0.000D+00 0.100D+01
 Gap=    -0.331 Goal=   None    Shift=    0.000
 RMSDP=6.44D-03 MaxDP=1.25D+00 DE=-1.73D+00 OVMax= 7.42D-01

 Cycle   3  Pass 1  IDiag  1:
 RMSU=  3.62D-03    CP:  8.44D-01  1.56D-01
 E= -26062.0044643067     Delta-E=       -1.215117339474 Rises=F Damp=F
 DIIS: error= 5.76D-02 at cycle   3 NSaved=   3.
 NSaved= 3 IEnMin= 3 EnMin= -26062.0044643067     IErMin= 3 ErrMin= 5.76D-02
 ErrMax= 5.76D-02  0.00D+00 EMaxC= 1.00D-01 BMatC= 1.00D+01 BMatP= 1.61D+02
 IDIUse=3 WtCom= 4.24D-01 WtEn= 5.76D-01
 EnCoef did   100 forward-backward iterations
 Coeff-Com:  0.741D+00-0.872D+00 0.113D+01
 Coeff-En:   0.285D+00 0.108D-01 0.704D+00
 Coeff:      0.478D+00-0.363D+00 0.885D+00
 Gap=    -0.108 Goal=   None    Shift=    0.000
 RMSDP=2.79D-02 MaxDP=5.59D+00 DE=-1.22D+00 OVMax= 9.69D-01

 Cycle   4  Pass 1  IDiag  1:
 RMSU=  1.55D-02    CP:  1.94D+00  3.00D+00 -1.46D+00
 E= -26020.1876241204     Delta-E=       41.816840186300 Rises=F Damp=F
 DIIS: error= 9.95D-02 at cycle   4 NSaved=   4.
 NSaved= 4 IEnMin= 3 EnMin= -26062.0044643067     IErMin= 3 ErrMin= 5.76D-02
 ErrMax= 9.95D-02  0.00D+00 EMaxC= 1.00D-01 BMatC= 1.59D+01 BMatP= 1.00D+01
 IDIUse=2 WtCom= 0.00D+00 WtEn= 1.00D+00
 EnCoef did   100 forward-backward iterations
 Coeff-En:   0.231D+00 0.570D-02 0.708D+00 0.558D-01
 Coeff:      0.231D+00 0.570D-02 0.708D+00 0.558D-01
 Gap=     0.125 Goal=   None    Shift=    0.000
 RMSDP=1.68D-02 MaxDP=2.42D+00 DE= 4.18D+01 OVMax= 8.70D-01

 Cycle   5  Pass 1  IDiag  1:
 RMSU=  6.82D-03    CP:  1.56D+00  2.37D+00 -1.02D+00  1.28D-01
 E= -26054.2134161379     Delta-E=      -34.025792017484 Rises=F Damp=F
 DIIS: error= 9.81D-02 at cycle   5 NSaved=   5.
 NSaved= 5 IEnMin= 3 EnMin= -26062.0044643067     IErMin= 3 ErrMin= 5.76D-02
 ErrMax= 9.81D-02  0.00D+00 EMaxC= 1.00D-01 BMatC= 5.20D+00 BMatP= 1.00D+01
 IDIUse=3 WtCom= 1.94D-02 WtEn= 9.81D-01
 EnCoef did     4 forward-backward iterations
 Coeff-Com:  0.414D+00-0.495D+00 0.641D+00 0.308D-01 0.410D+00
 Coeff-En:   0.809D-01 0.000D+00 0.683D+00 0.000D+00 0.236D+00
 Coeff:      0.873D-01-0.959D-02 0.683D+00 0.597D-03 0.239D+00
 Gap=    -0.246 Goal=   None    Shift=    0.000
 RMSDP=1.43D-02 MaxDP=3.20D+00 DE=-3.40D+01 OVMax= 9.97D-01

 Cycle   6  Pass 1  IDiag  1:
 RMSU=  1.72D-03    CP:  9.91D-01  2.50D-01  2.63D-01  2.44D-02  6.72D-02
 E= -26062.9840630796     Delta-E=       -8.770646941673 Rises=F Damp=F
 DIIS: error= 4.78D-02 at cycle   6 NSaved=   6.
 NSaved= 6 IEnMin= 6 EnMin= -26062.9840630796     IErMin= 6 ErrMin= 4.78D-02
 ErrMax= 4.78D-02  0.00D+00 EMaxC= 1.00D-01 BMatC= 3.76D+00 BMatP= 5.20D+00
 IDIUse=3 WtCom= 5.22D-01 WtEn= 4.78D-01
 EnCoef did     3 forward-backward iterations
 Coeff-Com: -0.226D+00 0.338D+00 0.250D+00-0.148D-01 0.104D+00 0.550D+00
 Coeff-En:   0.000D+00 0.000D+00 0.422D+00 0.000D+00 0.857D-01 0.492D+00
 Coeff:     -0.118D+00 0.176D+00 0.332D+00-0.775D-02 0.952D-01 0.522D+00
 Gap=     0.198 Goal=   None    Shift=    0.000
 RMSDP=1.92D-02 MaxDP=4.47D+00 DE=-8.77D+00 OVMax= 3.57D-01

 Cycle   7  Pass 1  IDiag  1:
 RMSU=  6.50D-03    CP:  1.82D+00  2.71D+00 -1.38D+00  7.29D-02  8.43D-01
                    CP: -4.48D-01
 E= -26063.8980152422     Delta-E=       -0.913952162657 Rises=F Damp=F
 DIIS: error= 2.03D-02 at cycle   7 NSaved=   7.
 NSaved= 7 IEnMin= 7 EnMin= -26063.8980152422     IErMin= 7 ErrMin= 2.03D-02
 ErrMax= 2.03D-02  0.00D+00 EMaxC= 1.00D-01 BMatC= 7.97D-01 BMatP= 3.76D+00
 IDIUse=3 WtCom= 7.97D-01 WtEn= 2.03D-01
 Coeff-Com: -0.996D-01 0.142D+00 0.100D+00-0.612D-02 0.243D-01 0.388D+00
 Coeff-Com:  0.451D+00
 Coeff-En:   0.000D+00 0.000D+00 0.000D+00 0.000D+00 0.000D+00 0.337D+00
 Coeff-En:   0.663D+00
 Coeff:     -0.794D-01 0.113D+00 0.799D-01-0.488D-02 0.194D-01 0.378D+00
 Coeff:      0.494D+00
 Gap=     0.199 Goal=   None    Shift=    0.000
 RMSDP=1.64D-02 MaxDP=3.86D+00 DE=-9.14D-01 OVMax= 2.59D-01

 Cycle   8  Pass 1  IDiag  1:
 RMSU=  7.96D-04    CP:  1.10D+00  6.76D-01  1.78D-01  1.91D-02  2.00D-01
                    CP:  4.44D-01  2.01D-01
 E= -26064.3823179319     Delta-E=       -0.484302689707 Rises=F Damp=F
 DIIS: error= 5.38D-03 at cycle   8 NSaved=   8.
 NSaved= 8 IEnMin= 8 EnMin= -26064.3823179319     IErMin= 8 ErrMin= 5.38D-03
 ErrMax= 5.38D-03  0.00D+00 EMaxC= 1.00D-01 BMatC= 1.04D-01 BMatP= 7.97D-01
 IDIUse=3 WtCom= 9.46D-01 WtEn= 5.38D-02
 Coeff-Com: -0.420D-01 0.574D-01 0.229D-01-0.860D-03 0.981D-02 0.162D+00
 Coeff-Com:  0.307D+00 0.483D+00
 Coeff-En:   0.000D+00 0.000D+00 0.000D+00 0.000D+00 0.000D+00 0.000D+00
 Coeff-En:   0.175D+00 0.825D+00
 Coeff:     -0.398D-01 0.543D-01 0.217D-01-0.814D-03 0.928D-02 0.154D+00
 Coeff:      0.300D+00 0.502D+00
 Gap=     0.093 Goal=   None    Shift=    0.000
 RMSDP=3.30D-03 MaxDP=7.23D-01 DE=-4.84D-01 OVMax= 1.51D-01

 Cycle   9  Pass 1  IDiag  1:
 RMSU=  6.15D-04    CP:  1.24D+00  1.05D+00 -1.48D-01  2.43D-02  3.25D-01
                    CP:  2.68D-01  3.57D-01  3.22D-01
 E= -26064.4195377425     Delta-E=       -0.037219810525 Rises=F Damp=F
 DIIS: error= 3.91D-03 at cycle   9 NSaved=   9.
 NSaved= 9 IEnMin= 9 EnMin= -26064.4195377425     IErMin= 9 ErrMin= 3.91D-03
 ErrMax= 3.91D-03  0.00D+00 EMaxC= 1.00D-01 BMatC= 6.75D-02 BMatP= 1.04D-01
 IDIUse=3 WtCom= 9.61D-01 WtEn= 3.91D-02
 Coeff-Com: -0.272D-01 0.356D-01-0.139D-01 0.329D-03 0.162D-02 0.376D-01
 Coeff-Com:  0.142D+00 0.438D+00 0.386D+00
 Coeff-En:   0.000D+00 0.000D+00 0.000D+00 0.000D+00 0.000D+00 0.000D+00
 Coeff-En:   0.000D+00 0.417D+00 0.583D+00
 Coeff:     -0.261D-01 0.342D-01-0.133D-01 0.316D-03 0.155D-02 0.361D-01
 Coeff:      0.137D+00 0.437D+00 0.394D+00
 Gap=     0.080 Goal=   None    Shift=    0.000
 RMSDP=5.60D-04 MaxDP=6.73D-02 DE=-3.72D-02 OVMax= 8.85D-02

 Cycle  10  Pass 1  IDiag  1:
 RMSU=  1.86D-04    CP:  1.23D+00  1.02D+00 -1.28D-01  2.74D-02  3.17D-01
                    CP:  3.04D-01  3.47D-01  6.42D-01  3.51D-01
 E= -26064.4823841102     Delta-E=       -0.062846367735 Rises=F Damp=F
 DIIS: error= 9.81D-04 at cycle  10 NSaved=  10.
 NSaved=10 IEnMin=10 EnMin= -26064.4823841102     IErMin=10 ErrMin= 9.81D-04
 ErrMax= 9.81D-04  0.00D+00 EMaxC= 1.00D-01 BMatC= 4.87D-03 BMatP= 6.75D-02
 IDIUse=3 WtCom= 9.90D-01 WtEn= 9.81D-03
 Coeff-Com: -0.123D-01 0.160D-01-0.102D-01 0.470D-03 0.344D-02 0.691D-03
 Coeff-Com:  0.424D-01 0.211D+00 0.256D+00 0.493D+00
 Coeff-En:   0.000D+00 0.000D+00 0.000D+00 0.000D+00 0.000D+00 0.000D+00
 Coeff-En:   0.000D+00 0.000D+00 0.477D-01 0.952D+00
 Coeff:     -0.122D-01 0.159D-01-0.101D-01 0.465D-03 0.340D-02 0.685D-03
 Coeff:      0.420D-01 0.208D+00 0.254D+00 0.497D+00
 Gap=     0.079 Goal=   None    Shift=    0.000
 RMSDP=3.74D-04 MaxDP=8.62D-02 DE=-6.28D-02 OVMax= 2.07D-02

 Cycle  11  Pass 1  IDiag  1:
 RMSU=  5.50D-05    CP:  1.22D+00  9.86D-01 -8.62D-02  2.58D-02  3.02D-01
                    CP:  3.22D-01  3.30D-01  6.30D-01  4.76D-01  6.15D-01
 E= -26064.4861260050     Delta-E=       -0.003741894783 Rises=F Damp=F
 DIIS: error= 9.04D-04 at cycle  11 NSaved=  11.
 NSaved=11 IEnMin=11 EnMin= -26064.4861260050     IErMin=11 ErrMin= 9.04D-04
 ErrMax= 9.04D-04  0.00D+00 EMaxC= 1.00D-01 BMatC= 5.90D-04 BMatP= 4.87D-03
 IDIUse=3 WtCom= 9.91D-01 WtEn= 9.04D-03
 Coeff-Com: -0.640D-02 0.838D-02-0.528D-02-0.246D-03 0.437D-02-0.691D-03
 Coeff-Com:  0.121D-01 0.612D-01 0.810D-01 0.266D+00 0.580D+00
 Coeff-En:   0.000D+00 0.000D+00 0.000D+00 0.000D+00 0.000D+00 0.000D+00
 Coeff-En:   0.000D+00 0.000D+00 0.000D+00 0.570D-01 0.943D+00
 Coeff:     -0.634D-02 0.830D-02-0.523D-02-0.243D-03 0.433D-02-0.684D-03
 Coeff:      0.120D-01 0.607D-01 0.803D-01 0.264D+00 0.583D+00
 Gap=     0.080 Goal=   None    Shift=    0.000
 RMSDP=4.64D-04 MaxDP=1.08D-01 DE=-3.74D-03 OVMax= 6.80D-03

 Cycle  12  Pass 1  IDiag  1:
 RMSU=  3.42D-05    CP:  1.24D+00  1.04D+00 -1.34D-01  2.75D-02  3.21D-01
                    CP:  3.07D-01  3.52D-01  6.28D-01  4.53D-01  6.54D-01
                    CP:  6.19D-01
 E= -26064.4865172996     Delta-E=       -0.000391294641 Rises=F Damp=F
 DIIS: error= 1.86D-04 at cycle  12 NSaved=  12.
 NSaved=12 IEnMin=12 EnMin= -26064.4865172996     IErMin=12 ErrMin= 1.86D-04
 ErrMax= 1.86D-04  0.00D+00 EMaxC= 1.00D-01 BMatC= 1.79D-04 BMatP= 5.90D-04
 IDIUse=3 WtCom= 9.98D-01 WtEn= 1.86D-03
 Coeff-Com: -0.498D-02 0.665D-02-0.235D-02-0.158D-03 0.181D-02 0.175D-02
 Coeff-Com:  0.198D-02-0.121D-01-0.117D-01 0.550D-01 0.322D+00 0.642D+00
 Coeff-En:   0.000D+00 0.000D+00 0.000D+00 0.000D+00 0.000D+00 0.000D+00
 Coeff-En:   0.000D+00 0.000D+00 0.000D+00 0.000D+00 0.109D+00 0.891D+00
 Coeff:     -0.497D-02 0.664D-02-0.235D-02-0.158D-03 0.181D-02 0.175D-02
 Coeff:      0.197D-02-0.121D-01-0.116D-01 0.549D-01 0.322D+00 0.642D+00
 Gap=     0.083 Goal=   None    Shift=    0.000
 RMSDP=1.87D-04 MaxDP=4.14D-02 DE=-3.91D-04 OVMax= 4.53D-03

 Cycle  13  Pass 1  IDiag  1:
 RMSU=  2.57D-05    CP:  1.24D+00  1.06D+00 -1.51D-01  2.79D-02  3.29D-01
                    CP:  3.08D-01  3.60D-01  6.35D-01  4.46D-01  6.61D-01
                    CP:  7.68D-01  1.06D+00
 E= -26064.4866552765     Delta-E=       -0.000137976829 Rises=F Damp=F
 DIIS: error= 2.18D-04 at cycle  13 NSaved=  13.
 NSaved=13 IEnMin=13 EnMin= -26064.4866552765     IErMin=12 ErrMin= 1.86D-04
 ErrMax= 2.18D-04  0.00D+00 EMaxC= 1.00D-01 BMatC= 4.53D-05 BMatP= 1.79D-04
 IDIUse=3 WtCom= 9.98D-01 WtEn= 1.86D-03
 Coeff-Com: -0.323D-02 0.431D-02-0.155D-02-0.640D-04 0.471D-03 0.146D-02
 Coeff-Com:  0.118D-02-0.131D-01-0.150D-01-0.138D-02 0.630D-01 0.415D+00
 Coeff-Com:  0.549D+00
 Coeff-En:   0.000D+00 0.000D+00 0.000D+00 0.000D+00 0.000D+00 0.000D+00
 Coeff-En:   0.000D+00 0.000D+00 0.000D+00 0.000D+00 0.000D+00 0.495D-01
 Coeff-En:   0.950D+00
 Coeff:     -0.322D-02 0.430D-02-0.155D-02-0.639D-04 0.470D-03 0.146D-02
 Coeff:      0.118D-02-0.131D-01-0.150D-01-0.137D-02 0.629D-01 0.414D+00
 Coeff:      0.550D+00
 Gap=     0.083 Goal=   None    Shift=    0.000
 RMSDP=8.07D-05 MaxDP=1.88D-02 DE=-1.38D-04 OVMax= 1.55D-03

 Cycle  14  Pass 1  IDiag  1:
 RMSU=  1.15D-05    CP:  1.25D+00  1.07D+00 -1.59D-01  2.82D-02  3.32D-01
                    CP:  3.05D-01  3.64D-01  6.33D-01  4.46D-01  6.70D-01
                    CP:  7.44D-01  1.19D+00  7.83D-01
 E= -26064.4866889177     Delta-E=       -0.000033641212 Rises=F Damp=F
 DIIS: error= 7.16D-05 at cycle  14 NSaved=  14.
 NSaved=14 IEnMin=14 EnMin= -26064.4866889177     IErMin=14 ErrMin= 7.16D-05
 ErrMax= 7.16D-05  0.00D+00 EMaxC= 1.00D-01 BMatC= 8.13D-06 BMatP= 4.53D-05
 IDIUse=1 WtCom= 1.00D+00 WtEn= 0.00D+00
 Coeff-Com: -0.119D-02 0.160D-02-0.495D-03 0.186D-04 0.399D-04 0.785D-03
 Coeff-Com:  0.139D-03-0.598D-02-0.631D-02-0.132D-01-0.459D-01 0.134D+00
 Coeff-Com:  0.352D+00 0.584D+00
 Coeff:     -0.119D-02 0.160D-02-0.495D-03 0.186D-04 0.399D-04 0.785D-03
 Coeff:      0.139D-03-0.598D-02-0.631D-02-0.132D-01-0.459D-01 0.134D+00
 Coeff:      0.352D+00 0.584D+00
 Gap=     0.083 Goal=   None    Shift=    0.000
 RMSDP=4.54D-05 MaxDP=9.42D-03 DE=-3.36D-05 OVMax= 1.83D-03

 Error on total polarization charges =  0.02236
 SCF Done:  E(RPBE-PBE) =  -26064.4866889     A.U. after   14 cycles
            NFock= 14  Conv=0.45D-04     -V/T= 2.0157
 KE= 2.566083946356D+04 PE=-7.819853095062D+04 EE= 1.820874368361D+04
 Leave Link  502 at Mon Nov  4 02:56:29 2019, MaxMem=   939524096 cpu:     27345.9
 (Enter /scr/programas/g09/l801.exe)
 Range of M.O.s used for correlation:     1  1249
 NBasis=  1249 NAE=   187 NBE=   187 NFC=     0 NFV=     0
 NROrb=   1249 NOA=   187 NOB=   187 NVA=  1062 NVB=  1062

 **** Warning!!: The largest alpha MO coefficient is  0.64362220D+02


 **** Warning!!: The smallest alpha delta epsilon is  0.83319498D-01

 Leave Link  801 at Mon Nov  4 02:56:29 2019, MaxMem=   939524096 cpu:         0.2
 (Enter /scr/programas/g09/l1002.exe)
 Minotr:  Closed shell wavefunction.
 NEqPCM:  Using equilibrium solvation (IEInf=0, Eps=   8.9300, EpsInf=   2.0283)
          Direct CPHF calculation.
          Differentiating once with respect to magnetic field using GIAOs.
          Electric field/nuclear overlap derivatives assumed to be zero.
          Requested convergence is 1.0D-08 RMS, and 1.0D-07 maximum.
          Secondary convergence is 1.0D-12 RMS, and 1.0D-12 maximum.
          NewPWx=T KeepS1=F KeepF1=F KeepIn=T MapXYZ=F SortEE=F KeepMc=T.
          MDV=     939522347 using IRadAn=       2.
 Defaulting to unpruned grid for atomic number  78.
 Defaulting to unpruned grid for atomic number  50.
 Generate precomputed XC quadrature information.
          Solving linear equations simultaneously, MaxMat=      72.
 FoFJK:  IHMeth= 1 ICntrl=    6127 DoSepK=F KAlg= 0 I1Cent=   0 FoldK=F
 IRaf=         1 NMat=   1 IRICut=       1 DoRegI=T DoRafI=F ISym2E= 0.
 Defaulting to unpruned grid for atomic number  78.
 Defaulting to unpruned grid for atomic number  78.
 Defaulting to unpruned grid for atomic number  78.
 Defaulting to unpruned grid for atomic number  78.
          There are     3 degrees of freedom in the 1st order CPHF.  IDoFFX=0 NUNeed=     3.
      3 vectors produced by pass  0 Test12= 6.62D-12 3.33D-08 XBig12= 8.39D+02 7.07D+00.
 AX will form     3 AO Fock derivatives at one time.
 InvSVY:  IOpt=1 It=  1 EMax= 0.00D+00
 Solved reduced A of dimension     3 with     3 vectors.
 Calculating GIAO nuclear magnetic shielding tensors.
 SCF GIAO Magnetic shielding tensor (ppm):
      1  Pt   Isotropic =  2911.6646   Anisotropy =  1106.4466
   XX=  3642.9779   YX=   -66.4045   ZX=   -59.7953
   XY=    -4.4223   YY=  3429.5021   ZY=     6.1752
   XZ=    -2.5842   YZ=    39.2163   ZZ=  1662.5138
   Eigenvalues:  1661.7455  3423.9527  3649.2957
      2  P    Isotropic =   287.0395   Anisotropy =    39.3537
   XX=   296.9772   YX=    -2.5285   ZX=    -0.1450
   XY=   -25.5413   YY=   297.7095   ZY=    -6.8176
   XZ=     8.8062   YZ=   -10.9438   ZZ=   266.4319
   Eigenvalues:   264.0728   283.7704   313.2753
      3  P    Isotropic =   278.3574   Anisotropy =    45.4937
   XX=   245.3833   YX=    -9.2322   ZX=   -19.4001
   XY=    11.0107   YY=   306.7343   ZY=    13.6398
   XZ=    -5.8712   YZ=     0.1348   ZZ=   282.9547
   Eigenvalues:   241.4022   284.9835   308.6866
      4  C    Isotropic =   155.9500   Anisotropy =    34.8891
   XX=   142.2166   YX=    -7.9538   ZX=     6.0740
   XY=    -3.1645   YY=   170.9723   ZY=   -13.7615
   XZ=     4.7192   YZ=   -11.1399   ZZ=   154.6613
   Eigenvalues:   140.1651   148.4756   179.2094
      5  H    Isotropic =    28.4935   Anisotropy =     8.8853
   XX=    29.0234   YX=     3.8110   ZX=     2.8672
   XY=     4.5353   YY=    31.1838   ZY=    -2.3775
   XZ=     3.5001   YZ=    -2.9016   ZZ=    25.2732
   Eigenvalues:    21.3908    29.6726    34.4170
      6  H    Isotropic =    29.2801   Anisotropy =     5.9619
   XX=    27.1359   YX=    -1.1121   ZX=    -2.8234
   XY=    -2.6317   YY=    29.1013   ZY=    -1.9543
   XZ=    -2.8474   YZ=    -1.9799   ZZ=    31.6030
   Eigenvalues:    24.3641    30.2216    33.2547
      7  C    Isotropic =   172.4790   Anisotropy =    21.0505
   XX=   164.8954   YX=    -4.4776   ZX=    -0.0495
   XY=    -4.9669   YY=   184.3530   ZY=    -4.6377
   XZ=     1.5768   YZ=    -4.1154   ZZ=   168.1887
   Eigenvalues:   163.7939   167.1305   186.5127
      8  H    Isotropic =    30.4010   Anisotropy =     8.6869
   XX=    29.4816   YX=     1.9112   ZX=     2.0217
   XY=     2.6692   YY=    35.3190   ZY=    -1.3842
   XZ=     1.9221   YZ=    -1.8003   ZZ=    26.4026
   Eigenvalues:    24.8551    30.1557    36.1923
      9  H    Isotropic =    30.1023   Anisotropy =    13.2430
   XX=    25.4763   YX=    -1.4903   ZX=     2.3597
   XY=    -2.0429   YY=    31.4007   ZY=    -6.4467
   XZ=     2.2592   YZ=    -5.1543   ZZ=    33.4299
   Eigenvalues:    24.8392    26.5367    38.9310
     10  H    Isotropic =    30.1279   Anisotropy =     7.6602
   XX=    30.4449   YX=    -3.2048   ZX=    -2.1082
   XY=    -4.5004   YY=    32.0507   ZY=    -0.4312
   XZ=    -1.9280   YZ=    -1.3278   ZZ=    27.8880
   Eigenvalues:    25.4445    29.7044    35.2347
     11  C    Isotropic =   150.6670   Anisotropy =    32.0259
   XX=   151.6679   YX=     2.9459   ZX=   -11.7381
   XY=    -0.5632   YY=   161.5494   ZY=    15.0024
   XZ=   -14.1862   YZ=    18.7474   ZZ=   138.7836
   Eigenvalues:   124.4150   155.5684   172.0176
     12  H    Isotropic =    28.9194   Anisotropy =     7.9841
   XX=    24.0813   YX=     1.8497   ZX=    -3.5652
   XY=     1.0468   YY=    33.6947   ZY=     1.1013
   XZ=    -3.5172   YZ=     2.2515   ZZ=    28.9822
   Eigenvalues:    21.8641    30.6519    34.2421
     13  C    Isotropic =   164.8128   Anisotropy =    23.1539
   XX=   169.1029   YX=     8.6307   ZX=    -8.5012
   XY=     6.5991   YY=   154.2916   ZY=    -0.1475
   XZ=    -9.6330   YZ=     0.2153   ZZ=   171.0440
   Eigenvalues:   150.3523   163.8375   180.2487
     14  H    Isotropic =    29.1795   Anisotropy =     9.0900
   XX=    29.4556   YX=     0.1759   ZX=    -2.3532
   XY=    -0.4260   YY=    32.1033   ZY=     4.4705
   XZ=    -2.6632   YZ=     5.5419   ZZ=    25.9795
   Eigenvalues:    22.5083    29.7906    35.2395
     15  H    Isotropic =    29.8536   Anisotropy =     6.1774
   XX=    29.5602   YX=     1.0908   ZX=     2.8768
   XY=    -2.1233   YY=    29.6917   ZY=     1.0061
   XZ=     5.0105   YZ=    -1.6076   ZZ=    30.3090
   Eigenvalues:    25.9644    29.6245    33.9719
     16  C    Isotropic =   174.5672   Anisotropy =    20.3279
   XX=   180.3186   YX=     4.7916   ZX=   -11.4248
   XY=     0.7248   YY=   173.4533   ZY=    -4.3790
   XZ=    -9.6597   YZ=    -2.8578   ZZ=   169.9297
   Eigenvalues:   163.0995   172.4829   188.1191
     17  H    Isotropic =    30.8215   Anisotropy =    12.1383
   XX=    35.0040   YX=     5.6906   ZX=     1.1823
   XY=     4.8923   YY=    31.6360   ZY=     0.9341
   XZ=    -0.1352   YZ=     0.1093   ZZ=    25.8245
   Eigenvalues:    25.7774    27.7733    38.9137
     18  H    Isotropic =    31.6851   Anisotropy =    12.4221
   XX=    30.8667   YX=    -1.9339   ZX=    -3.8197
   XY=    -3.9456   YY=    38.8021   ZY=    -1.1262
   XZ=    -4.0543   YZ=     1.9083   ZZ=    25.3866
   Eigenvalues:    23.2601    31.8287    39.9665
     19  H    Isotropic =    30.9432   Anisotropy =     9.1385
   XX=    30.6579   YX=     1.6457   ZX=    -0.8646
   XY=     0.0492   YY=    31.3419   ZY=    -5.9260
   XZ=    -0.3143   YZ=    -5.6357   ZZ=    30.8297
   Eigenvalues:    25.2945    30.4996    37.0355
     20  C    Isotropic =   156.2797   Anisotropy =    20.8196
   XX=   152.4402   YX=     8.5470   ZX=    -4.0952
   XY=    10.6942   YY=   151.4682   ZY=    -3.4086
   XZ=     0.9062   YZ=   -11.4112   ZZ=   164.9307
   Eigenvalues:   141.4730   157.2066   170.1594
     21  H    Isotropic =    29.2538   Anisotropy =     9.7413
   XX=    26.1365   YX=     0.1327   ZX=    -1.5662
   XY=    -0.0594   YY=    35.4452   ZY=    -1.4743
   XZ=    -1.6836   YZ=    -1.8675   ZZ=    26.1795
   Eigenvalues:    24.4087    27.6046    35.7480
     22  H    Isotropic =    29.1864   Anisotropy =     8.5874
   XX=    33.3779   YX=    -0.9745   ZX=     2.5335
   XY=     0.1137   YY=    27.4007   ZY=    -2.2042
   XZ=     3.8170   YZ=    -2.7947   ZZ=    26.7806
   Eigenvalues:    24.0422    28.6057    34.9113
     23  C    Isotropic =   171.3457   Anisotropy =    18.2395
   XX=   158.9526   YX=    -0.1885   ZX=    -0.4689
   XY=     0.2133   YY=   171.8133   ZY=     0.5672
   XZ=    -3.9653   YZ=     0.6963   ZZ=   183.2711
   Eigenvalues:   158.7518   171.7799   183.5053
     24  H    Isotropic =    30.5670   Anisotropy =     9.4351
   XX=    31.4644   YX=    -2.0098   ZX=     3.0173
   XY=    -0.9598   YY=    26.4141   ZY=    -2.5197
   XZ=     3.4806   YZ=    -2.2666   ZZ=    33.8224
   Eigenvalues:    25.6504    29.1935    36.8571
     25  H    Isotropic =    30.2147   Anisotropy =     5.8970
   XX=    26.4642   YX=    -2.7132   ZX=    -0.6993
   XY=    -2.8811   YY=    32.6707   ZY=    -2.0606
   XZ=    -0.9742   YZ=    -0.7058   ZZ=    31.5093
   Eigenvalues:    25.1293    31.3687    34.1461
     26  H    Isotropic =    30.0486   Anisotropy =    13.0095
   XX=    27.6815   YX=     1.8808   ZX=    -3.6363
   XY=     2.1556   YY=    28.1782   ZY=    -4.3806
   XZ=    -4.6386   YZ=    -4.9423   ZZ=    34.2861
   Eigenvalues:    25.5277    25.8965    38.7216
     27  C    Isotropic =   163.7787   Anisotropy =    30.1244
   XX=   157.9751   YX=    -3.7819   ZX=     2.9908
   XY=    -9.7650   YY=   182.0084   ZY=    -2.1028
   XZ=     2.7919   YZ=     0.3890   ZZ=   151.3526
   Eigenvalues:   150.1754   157.2991   183.8616
     28  H    Isotropic =    30.5884   Anisotropy =    10.4256
   XX=    31.9037   YX=     0.1103   ZX=    -2.9277
   XY=     3.4656   YY=    35.8950   ZY=    -1.8243
   XZ=    -3.5865   YZ=    -3.2037   ZZ=    23.9665
   Eigenvalues:    22.5564    31.6699    37.5388
     29  H    Isotropic =    30.2400   Anisotropy =     6.2507
   XX=    28.9880   YX=    -0.9230   ZX=     4.4172
   XY=     1.6367   YY=    33.5868   ZY=     0.5979
   XZ=     4.6671   YZ=     1.6012   ZZ=    28.1451
   Eigenvalues:    23.9705    32.3423    34.4071
     30  C    Isotropic =   177.3474   Anisotropy =    18.2109
   XX=   171.1177   YX=    -2.6213   ZX=     0.0584
   XY=    -2.4756   YY=   189.1153   ZY=    -0.5489
   XZ=    -0.1319   YZ=    -0.6262   ZZ=   171.8093
   Eigenvalues:   170.7506   171.8037   189.4880
     31  H    Isotropic =    30.5781   Anisotropy =    12.7847
   XX=    34.4730   YX=    -4.6698   ZX=     1.9513
   XY=    -5.6166   YY=    32.5144   ZY=    -1.4187
   XZ=     1.9363   YZ=    -1.1304   ZZ=    24.7470
   Eigenvalues:    24.3587    28.2745    39.1013
     32  H    Isotropic =    30.7082   Anisotropy =     9.9058
   XX=    28.9191   YX=    -1.5144   ZX=    -2.3184
   XY=    -0.0669   YY=    34.3185   ZY=    -5.2071
   XZ=    -2.3788   YZ=    -4.7591   ZZ=    28.8869
   Eigenvalues:    24.5708    30.2417    37.3121
     33  H    Isotropic =    30.7910   Anisotropy =     9.8147
   XX=    27.2031   YX=    -3.0529   ZX=     1.5193
   XY=    -1.8501   YY=    34.5773   ZY=     4.5939
   XZ=     1.4497   YZ=     3.6387   ZZ=    30.5925
   Eigenvalues:    24.9364    30.1024    37.3341
     34  C    Isotropic =   157.6678   Anisotropy =    23.2541
   XX=   152.3755   YX=     7.8949   ZX=    -6.3486
   XY=    11.4916   YY=   151.6803   ZY=     6.3076
   XZ=    -8.8771   YZ=    10.6628   ZZ=   168.9476
   Eigenvalues:   138.1177   161.7151   173.1705
     35  H    Isotropic =    29.3507   Anisotropy =     9.6236
   XX=    24.9790   YX=     0.0936   ZX=     0.4471
   XY=    -0.1331   YY=    35.1185   ZY=     2.1881
   XZ=     0.4931   YZ=     2.3071   ZZ=    27.9545
   Eigenvalues:    24.8914    27.3942    35.7664
     36  H    Isotropic =    28.7064   Anisotropy =    10.5064
   XX=    35.5663   YX=    -1.8087   ZX=     0.2373
   XY=    -0.1715   YY=    24.4821   ZY=     3.4893
   XZ=    -1.0039   YZ=     3.6299   ZZ=    26.0709
   Eigenvalues:    21.6088    28.7998    35.7107
     37  C    Isotropic =   171.2255   Anisotropy =    18.1318
   XX=   161.9353   YX=     1.7894   ZX=    -9.2566
   XY=     2.6369   YY=   172.1151   ZY=    -1.5844
   XZ=    -6.8192   YZ=    -2.1537   ZZ=   179.6260
   Eigenvalues:   158.6819   171.6812   183.3134
     38  H    Isotropic =    30.0430   Anisotropy =    13.3715
   XX=    25.7944   YX=     0.5618   ZX=    -0.4152
   XY=     1.1941   YY=    27.0839   ZY=     4.3205
   XZ=     0.6142   YZ=     4.6452   ZZ=    37.2507
   Eigenvalues:    24.7760    26.3957    38.9574
     39  H    Isotropic =    30.2396   Anisotropy =     5.0845
   XX=    25.4209   YX=    -0.5205   ZX=    -1.9942
   XY=    -0.8397   YY=    32.7126   ZY=     1.3072
   XZ=    -1.9461   YZ=    -0.2317   ZZ=    32.5853
   Eigenvalues:    24.8795    32.2101    33.6293
     40  H    Isotropic =    30.4512   Anisotropy =     8.9017
   XX=    33.9900   YX=    -1.6328   ZX=    -2.8169
   XY=    -0.3213   YY=    26.5566   ZY=     2.3923
   XZ=    -3.7503   YZ=     1.3063   ZZ=    30.8070
   Eigenvalues:    25.8555    29.1125    36.3857
     41  Sn   Isotropic =  2134.9213   Anisotropy =   816.0255
   XX=  2674.7580   YX=    36.0308   ZX=   -33.7693
   XY=    41.5594   YY=  1972.6136   ZY=    -3.2255
   XZ=   -52.8643   YZ=    -1.9252   ZZ=  1757.3923
   Eigenvalues:  1755.3489  1970.4767  2678.9383
     42  Cl   Isotropic =   757.6467   Anisotropy =   320.5780
   XX=   714.3139   YX=   -16.2772   ZX=  -161.5325
   XY=     3.1880   YY=   700.3814   ZY=   -13.0375
   XZ=  -178.8363   YZ=   -17.6526   ZZ=   858.2447
   Eigenvalues:   599.5743   702.0004   971.3653
     43  Cl   Isotropic =   749.1273   Anisotropy =   294.8742
   XX=   739.8530   YX=  -151.4340   ZX=    94.3132
   XY=  -125.1968   YY=   782.1389   ZY=   -43.6447
   XZ=   119.2897   YZ=   -28.6945   ZZ=   725.3901
   Eigenvalues:   589.7462   711.9256   945.7101
     44  Cl   Isotropic =   753.5401   Anisotropy =   295.4578
   XX=   713.4497   YX=   139.0385   ZX=    80.5138
   XY=   117.6032   YY=   827.8021   ZY=    61.1420
   XZ=    88.0962   YZ=    54.5873   ZZ=   719.3684
   Eigenvalues:   610.6880   699.4202   950.5120
     45  C    Isotropic =   170.3777   Anisotropy =    21.5387
   XX=   160.8305   YX=    -4.4708   ZX=    -3.8573
   XY=    -2.5673   YY=   179.6310   ZY=     7.0025
   XZ=    -3.9667   YZ=     7.5420   ZZ=   170.6716
   Eigenvalues:   159.4082   166.9880   184.7368
     46  H    Isotropic =    29.9906   Anisotropy =    12.2691
   XX=    29.8728   YX=    -1.7029   ZX=    -4.5560
   XY=    -2.9083   YY=    29.9640   ZY=     5.0541
   XZ=    -5.5122   YZ=     4.4250   ZZ=    30.1351
   Eigenvalues:    24.1798    27.6221    38.1700
     47  H    Isotropic =    30.2186   Anisotropy =     9.3067
   XX=    29.8129   YX=     0.2844   ZX=     2.1289
   XY=     1.0689   YY=    29.1222   ZY=     5.0306
   XZ=     2.7964   YZ=     4.9287   ZZ=    31.7206
   Eigenvalues:    25.0525    29.1802    36.4230
     48  H    Isotropic =    30.3621   Anisotropy =     8.5081
   XX=    25.4821   YX=    -1.1633   ZX=    -0.8416
   XY=    -1.3054   YY=    35.8626   ZY=    -1.1442
   XZ=    -1.1209   YZ=     0.0944   ZZ=    29.7414
   Eigenvalues:    25.1052    29.9468    36.0341
     49  H    Isotropic =    28.3481   Anisotropy =     9.4378
   XX=    31.1221   YX=     1.8274   ZX=     2.1953
   XY=     2.4090   YY=    29.6810   ZY=     4.7035
   XZ=     1.7765   YZ=     4.5969   ZZ=    24.2414
   Eigenvalues:    21.5235    28.8809    34.6400
     50  C    Isotropic =   -21.1384   Anisotropy =   240.2937
   XX=   -68.0921   YX=    -3.8066   ZX=    15.3146
   XY=     3.2955   YY=   138.2577   ZY=   -13.8226
   XZ=    -0.5458   YZ=   -15.6713   ZZ=  -133.5808
   Eigenvalues:  -135.1858   -67.2868   139.0574
     51  C    Isotropic =    39.7792   Anisotropy =   163.8990
   XX=    14.9651   YX=    -2.5279   ZX=   -26.2159
   XY=     1.4526   YY=   148.0684   ZY=   -12.9580
   XZ=   -50.6207   YZ=   -13.9689   ZZ=   -43.6957
   Eigenvalues:   -63.4171    33.7096   149.0452
     52  C    Isotropic =    42.3313   Anisotropy =   159.5290
   XX=    16.2381   YX=    -1.8970   ZX=    28.5115
   XY=    -2.0949   YY=   147.7000   ZY=   -11.7216
   XZ=    49.6359   YZ=   -12.8751   ZZ=   -36.9441
   Eigenvalues:   -58.0977    36.4078   148.6840
     53  C    Isotropic =    62.8729   Anisotropy =   172.1767
   XX=    16.1968   YX=     0.1712   ZX=    47.1267
   XY=    -6.1398   YY=   176.1732   ZY=   -16.5824
   XZ=    13.8320   YZ=   -13.9776   ZZ=    -3.7513
   Eigenvalues:   -26.4093    37.3707   177.6573
     54  H    Isotropic =    23.4040   Anisotropy =    13.4951
   XX=    28.9137   YX=     1.1920   ZX=    -6.7637
   XY=     0.4726   YY=    20.2592   ZY=     0.7392
   XZ=    -5.7867   YZ=     0.4404   ZZ=    21.0392
   Eigenvalues:    17.2833    20.5280    32.4008
     55  C    Isotropic =    61.4643   Anisotropy =   182.1261
   XX=    17.8311   YX=    -8.0583   ZX=   -43.6256
   XY=    -0.1817   YY=   181.6800   ZY=   -14.8124
   XZ=   -10.4084   YZ=   -15.7053   ZZ=   -15.1182
   Eigenvalues:   -31.3904    32.9016   182.8817
     56  H    Isotropic =    23.5756   Anisotropy =    13.7257
   XX=    28.2518   YX=     1.0213   ZX=     6.9587
   XY=     0.7780   YY=    20.1009   ZY=     0.6474
   XZ=     6.4581   YZ=     0.4795   ZZ=    22.3741
   Eigenvalues:    17.9889    20.0119    32.7261
     57  C    Isotropic =    35.6862   Anisotropy =   117.0397
   XX=   -28.5688   YX=    -3.9384   ZX=    -0.6708
   XY=     0.0028   YY=   113.2227   ZY=    -5.3472
   XZ=     1.5261   YZ=    -7.6413   ZZ=    22.4046
   Eigenvalues:   -28.5983    21.9442   113.7126
     58  H    Isotropic =    23.5439   Anisotropy =     6.3627
   XX=    27.7680   YX=     0.2823   ZX=     0.7813
   XY=     0.3380   YY=    20.4158   ZY=     0.0196
   XZ=    -0.4798   YZ=     0.3506   ZZ=    22.4481
   Eigenvalues:    20.3872    22.4589    27.7857
     59  H    Isotropic =    23.4621   Anisotropy =     6.3004
   XX=    27.6513   YX=     0.1651   ZX=    -0.4737
   XY=     0.3726   YY=    20.7987   ZY=     0.0883
   XZ=     0.5814   YZ=     0.1566   ZZ=    21.9364
   Eigenvalues:    20.7757    21.9483    27.6624
     60  O    Isotropic =  -263.4743   Anisotropy =   656.5898
   XX=  -400.4336   YX=    -2.9419   ZX=   152.3999
   XY=   -11.0576   YY=   169.6688   ZY=   -54.5925
   XZ=   -44.6507   YZ=   -58.6120   ZZ=  -559.6581
   Eigenvalues:  -579.8041  -384.8710   174.2522
     61  O    Isotropic =  -255.4346   Anisotropy =   663.5192
   XX=  -394.6460   YX=   -24.5200   ZX=  -142.6930
   XY=   -16.5521   YY=   181.5207   ZY=   -63.8125
   XZ=    57.0630   YZ=   -56.4860   ZZ=  -553.1784
   Eigenvalues:  -569.3479  -383.8674   186.9116
     62  N    Isotropic =  -119.5039   Anisotropy =   239.5056
   XX=  -227.6320   YX=    -6.7536   ZX=    -1.1289
   XY=    -5.3652   YY=    38.7436   ZY=   -16.2546
   XZ=    -1.2140   YZ=   -16.6450   ZZ=  -169.6234
   Eigenvalues:  -227.8115  -170.8667    40.1664
 End of Minotr F.D. properties file   721 does not exist.
 End of Minotr F.D. properties file   722 does not exist.
 End of Minotr F.D. properties file   788 does not exist.
 Leave Link 1002 at Mon Nov  4 05:51:33 2019, MaxMem=   939524096 cpu:     41754.4
 (Enter /scr/programas/g09/l601.exe)
 Copying SCF densities to generalized density rwf, IOpCl= 0 IROHF=0.

 **********************************************************************

            Population analysis using the SCF density.

 **********************************************************************

 Orbital symmetries:
       Occupied  (A) (A) (A) (A) (A) (A) (A) (A) (A) (A) (A) (A)
                 (A) (A) (A) (A) (A) (A) (A) (A) (A) (A) (A) (A)
                 (A) (A) (A) (A) (A) (A) (A) (A) (A) (A) (A) (A)
                 (A) (A) (A) (A) (A) (A) (A) (A) (A) (A) (A) (A)
                 (A) (A) (A) (A) (A) (A) (A) (A) (A) (A) (A) (A)
                 (A) (A) (A) (A) (A) (A) (A) (A) (A) (A) (A) (A)
                 (A) (A) (A) (A) (A) (A) (A) (A) (A) (A) (A) (A)
                 (A) (A) (A) (A) (A) (A) (A) (A) (A) (A) (A) (A)
                 (A) (A) (A) (A) (A) (A) (A) (A) (A) (A) (A) (A)
                 (A) (A) (A) (A) (A) (A) (A) (A) (A) (A) (A) (A)
                 (A) (A) (A) (A) (A) (A) (A) (A) (A) (A) (A) (A)
                 (A) (A) (A) (A) (A) (A) (A) (A) (A) (A) (A) (A)
                 (A) (A) (A) (A) (A) (A) (A) (A) (A) (A) (A) (A)
                 (A) (A) (A) (A) (A) (A) (A) (A) (A) (A) (A) (A)
                 (A) (A) (A) (A) (A) (A) (A) (A) (A) (A) (A) (A)
                 (A) (A) (A) (A) (A) (A) (A)
       Virtual   (A) (A) (A) (A) (A) (A) (A) (A) (A) (A) (A) (A)
                 (A) (A) (A) (A) (A) (A) (A) (A) (A) (A) (A) (A)
                 (A) (A) (A) (A) (A) (A) (A) (A) (A) (A) (A) (A)
                 (A) (A) (A) (A) (A) (A) (A) (A) (A) (A) (A) (A)
                 (A) (A) (A) (A) (A) (A) (A) (A) (A) (A) (A) (A)
                 (A) (A) (A) (A) (A) (A) (A) (A) (A) (A) (A) (A)
                 (A) (A) (A) (A) (A) (A) (A) (A) (A) (A) (A) (A)
                 (A) (A) (A) (A) (A) (A) (A) (A) (A) (A) (A) (A)
                 (A) (A) (A) (A) (A) (A) (A) (A) (A) (A) (A) (A)
                 (A) (A) (A) (A) (A) (A) (A) (A) (A) (A) (A) (A)
                 (A) (A) (A) (A) (A) (A) (A) (A) (A) (A) (A) (A)
                 (A) (A) (A) (A) (A) (A) (A) (A) (A) (A) (A) (A)
                 (A) (A) (A) (A) (A) (A) (A) (A) (A) (A) (A) (A)
                 (A) (A) (A) (A) (A) (A) (A) (A) (A) (A) (A) (A)
                 (A) (A) (A) (A) (A) (A) (A) (A) (A) (A) (A) (A)
                 (A) (A) (A) (A) (A) (A) (A) (A) (A) (A) (A) (A)
                 (A) (A) (A) (A) (A) (A) (A) (A) (A) (A) (A) (A)
                 (A) (A) (A) (A) (A) (A) (A) (A) (A) (A) (A) (A)
                 (A) (A) (A) (A) (A) (A) (A) (A) (A) (A) (A) (A)
                 (A) (A) (A) (A) (A) (A) (A) (A) (A) (A) (A) (A)
                 (A) (A) (A) (A) (A) (A) (A) (A) (A) (A) (A) (A)
                 (A) (A) (A) (A) (A) (A) (A) (A) (A) (A) (A) (A)
                 (A) (A) (A) (A) (A) (A) (A) (A) (A) (A) (A) (A)
                 (A) (A) (A) (A) (A) (A) (A) (A) (A) (A) (A) (A)
                 (A) (A) (A) (A) (A) (A) (A) (A) (A) (A) (A) (A)
                 (A) (A) (A) (A) (A) (A) (A) (A) (A) (A) (A) (A)
                 (A) (A) (A) (A) (A) (A) (A) (A) (A) (A) (A) (A)
                 (A) (A) (A) (A) (A) (A) (A) (A) (A) (A) (A) (A)
                 (A) (A) (A) (A) (A) (A) (A) (A) (A) (A) (A) (A)
                 (A) (A) (A) (A) (A) (A) (A) (A) (A) (A) (A) (A)
                 (A) (A) (A) (A) (A) (A) (A) (A) (A) (A) (A) (A)
                 (A) (A) (A) (A) (A) (A) (A) (A) (A) (A) (A) (A)
                 (A) (A) (A) (A) (A) (A) (A) (A) (A) (A) (A) (A)
                 (A) (A) (A) (A) (A) (A) (A) (A) (A) (A) (A) (A)
                 (A) (A) (A) (A) (A) (A) (A) (A) (A) (A) (A) (A)
                 (A) (A) (A) (A) (A) (A) (A) (A) (A) (A) (A) (A)
                 (A) (A) (A) (A) (A) (A) (A) (A) (A) (A) (A) (A)
                 (A) (A) (A) (A) (A) (A) (A) (A) (A) (A) (A) (A)
                 (A) (A) (A) (A) (A) (A) (A) (A) (A) (A) (A) (A)
                 (A) (A) (A) (A) (A) (A) (A) (A) (A) (A) (A) (A)
                 (A) (A) (A) (A) (A) (A) (A) (A) (A) (A) (A) (A)
                 (A) (A) (A) (A) (A) (A) (A) (A) (A) (A) (A) (A)
                 (A) (A) (A) (A) (A) (A) (A) (A) (A) (A) (A) (A)
                 (A) (A) (A) (A) (A) (A) (A) (A) (A) (A) (A) (A)
                 (A) (A) (A) (A) (A) (A) (A) (A) (A) (A) (A) (A)
                 (A) (A) (A) (A) (A) (A) (A) (A) (A) (A) (A) (A)
                 (A) (A) (A) (A) (A) (A) (A) (A) (A) (A) (A) (A)
                 (A) (A) (A) (A) (A) (A) (A) (A) (A) (A) (A) (A)
                 (A) (A) (A) (A) (A) (A) (A) (A) (A) (A) (A) (A)
                 (A) (A) (A) (A) (A) (A) (A) (A) (A) (A) (A) (A)
                 (A) (A) (A) (A) (A) (A) (A) (A) (A) (A) (A) (A)
                 (A) (A) (A) (A) (A) (A) (A) (A) (A) (A) (A) (A)
                 (A) (A) (A) (A) (A) (A) (A) (A) (A) (A) (A) (A)
                 (A) (A) (A) (A) (A) (A) (A) (A) (A) (A) (A) (A)
                 (A) (A) (A) (A) (A) (A) (A) (A) (A) (A) (A) (A)
                 (A) (A) (A) (A) (A) (A) (A) (A) (A) (A) (A) (A)
                 (A) (A) (A) (A) (A) (A) (A) (A) (A) (A) (A) (A)
                 (A) (A) (A) (A) (A) (A) (A) (A) (A) (A) (A) (A)
                 (A) (A) (A) (A) (A) (A) (A) (A) (A) (A) (A) (A)
[...]
 Alpha virt. eigenvalues --    0.51001   0.51282   0.51340   0.51582   0.51767
 Alpha virt. eigenvalues --    0.52077   0.52416   0.52561   0.52740   0.52868
 Alpha virt. eigenvalues --    0.53295   0.53449   0.53564   0.53809   0.54249
 Alpha virt. eigenvalues --    0.54427   0.54615   0.54740   0.55061   0.55415
 Alpha virt. eigenvalues --    0.55797   0.55902   0.56065   0.56189   0.56654
 Alpha virt. eigenvalues --    0.56903   0.57215   0.57364   0.57600   0.57790
 Alpha virt. eigenvalues --    0.57984   0.58162   0.58226   0.58640   0.58750
 Alpha virt. eigenvalues --    0.59104   0.59334   0.59537   0.59886   0.59972
 Alpha virt. eigenvalues --    0.60224   0.60741   0.60868   0.61105   0.61264
 Alpha virt. eigenvalues --    0.61967   0.62099   0.62218   0.62456   0.62940
 Alpha virt. eigenvalues --    0.63059   0.63210   0.63479   0.63589   0.63832
 Alpha virt. eigenvalues --    0.63970   0.64134   0.64322   0.64882   0.65020
 Alpha virt. eigenvalues --    0.65300   0.65519   0.65927   0.66118   0.66297
 Alpha virt. eigenvalues --    0.66434   0.66750   0.67089   0.67248   0.67396
 Alpha virt. eigenvalues --    0.67655   0.67880   0.68090   0.68335   0.68573
 Alpha virt. eigenvalues --    0.69281   0.69468   0.69739   0.69829   0.69945
 Alpha virt. eigenvalues --    0.70427   0.70658   0.70686   0.71027   0.71120
 Alpha virt. eigenvalues --    0.71577   0.71644   0.71866   0.72191   0.72789
 Alpha virt. eigenvalues --    0.72861   0.73185   0.73579   0.73777   0.73939
 Alpha virt. eigenvalues --    0.74268   0.74459   0.74573   0.74731   0.75020
 Alpha virt. eigenvalues --    0.75149   0.75406   0.75661   0.75808   0.76035
 Alpha virt. eigenvalues --    0.76345   0.76567   0.76769   0.77085   0.77451
 Alpha virt. eigenvalues --    0.77725   0.77813   0.78164   0.78511   0.78647
 Alpha virt. eigenvalues --    0.78964   0.79244   0.79516   0.80001   0.80066
 Alpha virt. eigenvalues --    0.80515   0.80586   0.80968   0.81416   0.81519
 Alpha virt. eigenvalues --    0.81934   0.82039   0.82333   0.82476   0.82667
 Alpha virt. eigenvalues --    0.82986   0.83038   0.83496   0.83919   0.84235
 Alpha virt. eigenvalues --    0.84461   0.84534   0.84771   0.85146   0.85391
 Alpha virt. eigenvalues --    0.85530   0.85691   0.85711   0.86234   0.86575
 Alpha virt. eigenvalues --    0.86834   0.87100   0.87389   0.87789   0.87823
 Alpha virt. eigenvalues --    0.88228   0.88514   0.88838   0.89033   0.89820
 Alpha virt. eigenvalues --    0.90051   0.90221   0.90423   0.90908   0.91003
 Alpha virt. eigenvalues --    0.91255   0.91564   0.91861   0.92068   0.92366
 Alpha virt. eigenvalues --    0.92616   0.93034   0.93380   0.93785   0.93837
 Alpha virt. eigenvalues --    0.94288   0.94388   0.94735   0.94931   0.95498
 Alpha virt. eigenvalues --    0.95727   0.96416   0.96613   0.96766   0.97128
 Alpha virt. eigenvalues --    0.97522   0.98085   0.98327   0.98494   0.98740
 Alpha virt. eigenvalues --    0.99105   0.99294   0.99728   0.99822   0.99929
 Alpha virt. eigenvalues --    1.00355   1.00638   1.01287   1.01518   1.01947
 Alpha virt. eigenvalues --    1.01980   1.02475   1.03027   1.03098   1.03564
 Alpha virt. eigenvalues --    1.03609   1.04393   1.04479   1.04851   1.05031
 Alpha virt. eigenvalues --    1.05298   1.05838   1.05944   1.06088   1.06828
 Alpha virt. eigenvalues --    1.07006   1.07278   1.07766   1.07899   1.08182
 Alpha virt. eigenvalues --    1.08327   1.08752   1.09409   1.09707   1.10031
 Alpha virt. eigenvalues --    1.10565   1.10998   1.11478   1.11627   1.11807
 Alpha virt. eigenvalues --    1.12356   1.12754   1.13196   1.13559   1.13953
 Alpha virt. eigenvalues --    1.14250   1.14552   1.14970   1.15585   1.15641
 Alpha virt. eigenvalues --    1.16222   1.16590   1.17180   1.17434   1.17644
 Alpha virt. eigenvalues --    1.18047   1.18870   1.19271   1.19487   1.19985
 Alpha virt. eigenvalues --    1.20215   1.20332   1.20845   1.21622   1.21762
 Alpha virt. eigenvalues --    1.22125   1.22716   1.23170   1.23368   1.23718
 Alpha virt. eigenvalues --    1.24528   1.24976   1.25398   1.25854   1.26280
 Alpha virt. eigenvalues --    1.26596   1.26890   1.27055   1.27641   1.28147
 Alpha virt. eigenvalues --    1.28843   1.29379   1.29471   1.29892   1.30543
 Alpha virt. eigenvalues --    1.30754   1.31270   1.31795   1.31858   1.32081
 Alpha virt. eigenvalues --    1.32509   1.32723   1.33362   1.33705   1.34379
 Alpha virt. eigenvalues --    1.34802   1.35253   1.35633   1.35829   1.36564
 Alpha virt. eigenvalues --    1.37242   1.37428   1.38107   1.38428   1.38698
 Alpha virt. eigenvalues --    1.39454   1.39519   1.40039   1.40166   1.40587
 Alpha virt. eigenvalues --    1.40951   1.41059   1.41833   1.42368   1.42735
 Alpha virt. eigenvalues --    1.43210   1.43393   1.43533   1.44204   1.44839
 Alpha virt. eigenvalues --    1.45229   1.45604   1.45703   1.46174   1.46559
 Alpha virt. eigenvalues --    1.46914   1.47142   1.47541   1.48155   1.48994
 Alpha virt. eigenvalues --    1.49157   1.49633   1.50524   1.50894   1.51263
 Alpha virt. eigenvalues --    1.51623   1.52185   1.52524   1.52945   1.53660
 Alpha virt. eigenvalues --    1.53807   1.54408   1.54773   1.55359   1.55438
 Alpha virt. eigenvalues --    1.56179   1.56713   1.56824   1.57437   1.58245
 Alpha virt. eigenvalues --    1.58923   1.59382   1.59959   1.60268   1.60840
 Alpha virt. eigenvalues --    1.61176   1.61940   1.62465   1.63050   1.63699
 Alpha virt. eigenvalues --    1.64281   1.65233   1.65906   1.65979   1.66475
 Alpha virt. eigenvalues --    1.66828   1.67463   1.68588   1.69077   1.69324
 Alpha virt. eigenvalues --    1.69816   1.70457   1.70865   1.71509   1.71915
 Alpha virt. eigenvalues --    1.72569   1.73002   1.74416   1.74634   1.75083
 Alpha virt. eigenvalues --    1.75298   1.76666   1.76737   1.77619   1.77868
 Alpha virt. eigenvalues --    1.78357   1.78607   1.79023   1.79354   1.80057
 Alpha virt. eigenvalues --    1.80354   1.81721   1.82183   1.82835   1.83356
 Alpha virt. eigenvalues --    1.83555   1.84133   1.84670   1.85023   1.85303
 Alpha virt. eigenvalues --    1.85547   1.86322   1.86526   1.87111   1.87344
 Alpha virt. eigenvalues --    1.87733   1.88152   1.89088   1.89446   1.90174
 Alpha virt. eigenvalues --    1.90387   1.90830   1.91324   1.91544   1.92809
 Alpha virt. eigenvalues --    1.93025   1.93626   1.94243   1.94470   1.95154
 Alpha virt. eigenvalues --    1.95445   1.96338   1.97520   1.97632   1.98453
 Alpha virt. eigenvalues --    1.98560   1.99165   2.00165   2.01148   2.01475
 Alpha virt. eigenvalues --    2.01556   2.02106   2.02928   2.03317   2.03867
 Alpha virt. eigenvalues --    2.04641   2.05119   2.05822   2.06703   2.07266
 Alpha virt. eigenvalues --    2.07394   2.07778   2.08171   2.08414   2.09271
 Alpha virt. eigenvalues --    2.09989   2.10968   2.11905   2.12268   2.12559
 Alpha virt. eigenvalues --    2.13282   2.13715   2.14151   2.14734   2.15866
 Alpha virt. eigenvalues --    2.16170   2.16326   2.16713   2.17341   2.18059
 Alpha virt. eigenvalues --    2.18405   2.18618   2.19199   2.19782   2.20605
 Alpha virt. eigenvalues --    2.20811   2.21642   2.21973   2.22841   2.23148
 Alpha virt. eigenvalues --    2.24402   2.24944   2.25148   2.25259   2.26540
 Alpha virt. eigenvalues --    2.27714   2.27872   2.28512   2.29250   2.30396
 Alpha virt. eigenvalues --    2.30823   2.31584   2.31732   2.32088   2.32481
 Alpha virt. eigenvalues --    2.33002   2.33364   2.33762   2.33881   2.34467
 Alpha virt. eigenvalues --    2.34785   2.35273   2.36109   2.36442   2.37044
 Alpha virt. eigenvalues --    2.37331   2.37824   2.38656   2.38941   2.39341
 Alpha virt. eigenvalues --    2.39435   2.39732   2.40676   2.41459   2.41811
 Alpha virt. eigenvalues --    2.42036   2.43138   2.43593   2.44021   2.44394
 Alpha virt. eigenvalues --    2.44796   2.45145   2.45434   2.46028   2.46725
 Alpha virt. eigenvalues --    2.46988   2.47071   2.47645   2.48364   2.48888
 Alpha virt. eigenvalues --    2.49681   2.50583   2.51146   2.51840   2.52308
 Alpha virt. eigenvalues --    2.52694   2.53446   2.55477   2.56186   2.57041
 Alpha virt. eigenvalues --    2.57453   2.57703   2.58460   2.58819   2.59699
 Alpha virt. eigenvalues --    2.59924   2.60681   2.61026   2.61910   2.62433
 Alpha virt. eigenvalues --    2.62698   2.63248   2.63385   2.64475   2.64888
 Alpha virt. eigenvalues --    2.64934   2.65441   2.65672   2.66575   2.66891
 Alpha virt. eigenvalues --    2.67270   2.68259   2.68724   2.69527   2.70138
 Alpha virt. eigenvalues --    2.70924   2.71425   2.72747   2.73749   2.74135
 Alpha virt. eigenvalues --    2.74661   2.75243   2.76598   2.77290   2.77701
 Alpha virt. eigenvalues --    2.78509   2.78669   2.79402   2.79888   2.80456
 Alpha virt. eigenvalues --    2.80757   2.81049   2.81873   2.82220   2.82772
 Alpha virt. eigenvalues --    2.84855   2.86129   2.88892   2.90620   2.91456
 Alpha virt. eigenvalues --    2.92426   2.94295   2.95985   2.96807   2.98073
 Alpha virt. eigenvalues --    2.99290   2.99734   3.01538   3.02988   3.03795
 Alpha virt. eigenvalues --    3.04767   3.05505   3.05889   3.06591   3.07953
 Alpha virt. eigenvalues --    3.08060   3.08873   3.10883   3.11254   3.12044
 Alpha virt. eigenvalues --    3.12300   3.13269   3.13679   3.13927   3.15114
 Alpha virt. eigenvalues --    3.15637   3.15984   3.16381   3.16596   3.17247
 Alpha virt. eigenvalues --    3.17664   3.18532   3.20147   3.20391   3.21896
 Alpha virt. eigenvalues --    3.22940   3.23085   3.24309   3.25523   3.26605
 Alpha virt. eigenvalues --    3.27466   3.27877   3.28768   3.29198   3.29565
 Alpha virt. eigenvalues --    3.30605   3.31119   3.31596   3.32681   3.32720
 Alpha virt. eigenvalues --    3.33379   3.34134   3.35304   3.35667   3.37843
 Alpha virt. eigenvalues --    3.41826   3.45700   3.48050   3.50418   3.51346
 Alpha virt. eigenvalues --    3.51820   3.53681   3.58946   3.61141   3.63064
 Alpha virt. eigenvalues --    3.67038   3.70494   3.72527   3.75349   3.78687
 Alpha virt. eigenvalues --    3.90110   3.94902   3.97747   3.98074   3.99728
 Alpha virt. eigenvalues --    4.05198   4.17231   4.19177   4.19998   4.21494
 Alpha virt. eigenvalues --    4.23272   4.24163   4.26052   4.28101   4.31630
 Alpha virt. eigenvalues --    4.35656   4.37698   4.39341   4.39999   4.41279
 Alpha virt. eigenvalues --    4.43518   4.44461   4.45832   4.48368   4.50544
 Alpha virt. eigenvalues --    4.51252   4.53371   4.58282   4.68510   4.84668
 Alpha virt. eigenvalues --    5.42619   5.46993   5.60418   5.65895   5.81534
 Alpha virt. eigenvalues --    6.08471   6.14508   6.69143   6.69542   6.69841
 Alpha virt. eigenvalues --    6.70466   6.71622   6.72876   6.73264   6.73283
 Alpha virt. eigenvalues --    6.73919   6.73942   6.74869   6.75849   6.76965
 Alpha virt. eigenvalues --    6.78824   6.83025   6.85122   6.85804   6.89487
 Alpha virt. eigenvalues --    6.90708   6.91852   6.92636   6.93559   6.94505
 Alpha virt. eigenvalues --    6.95022   6.95589   6.96073   6.97209   6.97748
 Alpha virt. eigenvalues --    6.98207   6.99062   7.00001   7.01577   7.02978
 Alpha virt. eigenvalues --    7.03727   7.04256   7.06255   7.08222   7.10790
 Alpha virt. eigenvalues --    7.11607   7.14978   7.24480   7.63591   7.68964
 Alpha virt. eigenvalues --    7.72091   7.72516   7.74677   7.76034   8.48864
 Alpha virt. eigenvalues --    8.49850   8.50371   8.50633   8.51162   8.52206
 Alpha virt. eigenvalues --    8.54672   8.60591   8.71756   8.99733   9.82563
 Alpha virt. eigenvalues --    9.83660   9.86272   9.87962   9.89403   9.90773
 Alpha virt. eigenvalues --    9.97737   9.99649  10.00442  10.05915  10.06192
 Alpha virt. eigenvalues --   10.08385  10.10642  10.32576  14.01252  14.14328
 Alpha virt. eigenvalues --   15.61419  16.73486  16.82961  16.91646  17.02473
 Alpha virt. eigenvalues --   17.04108  17.06957  17.07446  17.07645  17.08213
 Alpha virt. eigenvalues --   17.11568  17.13502  17.14823  17.15666  17.19315
 Alpha virt. eigenvalues --   17.20760  17.21382  17.25907  17.28289  17.35862
 Alpha virt. eigenvalues --   17.37914  17.49444  21.04317  21.30816  21.34797
 Alpha virt. eigenvalues --   23.01363  25.46191  25.55935  25.59347  26.16439
 Alpha virt. eigenvalues --   30.25807  30.33523  31.67857  31.68722  31.73066
 Alpha virt. eigenvalues --   31.75410  31.79478  42.99563  43.01906  43.03303
 Alpha virt. eigenvalues --   43.05433  43.20986  61.73812  61.85436  62.98457
 Alpha virt. eigenvalues --   78.05450  78.13985  78.21640  82.20945  86.15897
 Alpha virt. eigenvalues --   86.37597  86.40694  89.27605  89.29444  89.32669
 Alpha virt. eigenvalues --   89.33008  89.33596  89.34447  89.38567  89.39396
 Alpha virt. eigenvalues --   89.41407  89.41642  89.45216  89.46536  89.47147
 Alpha virt. eigenvalues --   89.51832  89.52391  89.62642  89.65561  89.75122
 Alpha virt. eigenvalues --  121.81680 121.88546 121.90930 123.16065 163.02240
 Alpha virt. eigenvalues --  163.10401 239.16498 257.31712 332.06230 332.18524
 Alpha virt. eigenvalues --  428.75867 428.92846 428.95312 431.67030 431.76049
 Alpha virt. eigenvalues --  431.84128 590.19273 590.24591 590.26359 772.99264
 Alpha virt. eigenvalues --  839.566292068.592042529.944265495.39198**********
 Alpha virt. eigenvalues -- ********************
          Condensed to atoms (all electrons):
 Mulliken charges:
               1
     1  Pt   0.469939
     2  P    0.031535
     3  P    0.219491
     4  C   -0.340224
     5  H    0.089806
     6  H    0.094275
     7  C   -0.181557
     8  H    0.110490
     9  H    0.137479
    10  H    0.114281
    11  C   -0.318213
    12  H    0.096422
    13  C   -0.341404
    14  H    0.112814
    15  H    0.090458
    16  C   -0.093884
    17  H    0.118556
    18  H    0.057183
    19  H    0.097434
    20  C   -0.450759
    21  H    0.112771
    22  H    0.087152
    23  C   -0.106071
    24  H    0.105093
    25  H    0.075609
    26  H    0.129459
    27  C   -0.402204
    28  H    0.071824
    29  H    0.087575
    30  C   -0.189680
    31  H    0.138926
    32  H    0.114922
    33  H    0.115882
    34  C   -0.438436
    35  H    0.103339
    36  H    0.082665
    37  C   -0.091021
    38  H    0.138204
    39  H    0.072755
    40  H    0.098981
    41  Sn   0.311093
    42  Cl  -0.290100
    43  Cl  -0.261198
    44  Cl  -0.236522
    45  C   -0.174189
    46  H    0.133049
    47  H    0.117743
    48  H    0.111585
    49  H    0.079894
    50  C    0.072110
    51  C    0.029706
    52  C   -0.035671
    53  C   -0.157385
    54  H    0.049776
    55  C   -0.317368
    56  H    0.067527
    57  C    0.000810
    58  H    0.114996
    59  H    0.117853
    60  O   -0.071094
    61  O   -0.079087
    62  N   -0.005392
 Sum of Mulliken charges =   0.00000
 Mulliken charges with hydrogens summed into heavy atoms:
               1
     1  Pt   0.469939
     2  P    0.031535
     3  P    0.219491
     4  C   -0.156143
     7  C    0.180693
    11  C   -0.141898
    13  C   -0.138131
    16  C    0.179288
    20  C   -0.250836
    23  C    0.204090
    27  C   -0.242805
    30  C    0.180050
    34  C   -0.252432
    37  C    0.218919
    41  Sn   0.311093
    42  Cl  -0.290100
    43  Cl  -0.261198
    44  Cl  -0.236522
    45  C    0.188188
    50  C    0.072110
    51  C    0.079482
    52  C    0.031857
    53  C   -0.042389
    55  C   -0.199516
    57  C    0.000810
    60  O   -0.071094
    61  O   -0.079087
    62  N   -0.005392
 Electronic spatial extent (au):  <R**2>=          18572.2571
 Charge=              0.0000 electrons
 Dipole moment (field-independent basis, Debye):
    X=              5.4747    Y=              0.8035    Z=              0.0194  Tot=              5.5334
 Quadrupole moment (field-independent basis, Debye-Ang):
   XX=           -364.9120   YY=           -216.1457   ZZ=           -248.4274
   XY=            -10.0114   XZ=             -2.1449   YZ=              0.8966
 Traceless Quadrupole moment (field-independent basis, Debye-Ang):
   XX=            -88.4170   YY=             60.3493   ZZ=             28.0677
   XY=            -10.0114   XZ=             -2.1449   YZ=              0.8966
 Octapole moment (field-independent basis, Debye-Ang**2):
  XXX=           -389.4000  YYY=             -2.1347  ZZZ=            -17.8164  XYY=              9.6872
  XXY=             -7.6657  XXZ=             -0.4238  XZZ=              0.3950  YZZ=             -3.9859
  YYZ=             10.5110  XYZ=             -0.6664
 Hexadecapole moment (field-independent basis, Debye-Ang**3):
 XXXX=         -18490.4839 YYYY=          -7493.6777 ZZZZ=          -2604.2888 XXXY=           -172.3702
 XXXZ=            -76.8569 YYYX=            -47.0778 YYYZ=            -11.4478 ZZZX=             39.4801
 ZZZY=             14.4162 XXYY=          -3602.5317 XXZZ=          -2888.3660 YYZZ=          -1682.1572
 XXYZ=              0.3968 YYXZ=            -34.9739 ZZXY=             -6.4691
 N-N= 8.264461114531D+03 E-N=-7.819864093467D+04  KE= 2.566083946356D+04
 Calculating spin-rotation constants.
 Leave Link  601 at Mon Nov  4 05:56:15 2019, MaxMem=   939524096 cpu:       344.0
 (Enter /scr/programas/g09/l9999.exe)
 1\1\GINC-NQTCM\SP\RPBEPBE\Gen\C18H34Cl3N1O2P2Pt1Sn1\NQTCM\04-Nov-2019\
 0\\#PBEPBE/gen scf=(maxcycle=500,conver=4) NMR=GIAO Scrf=(solvent=Dich
 loromethane)\\estrutura 72\\0,1\Pt,0,0.079153,-0.032565,-0.019745\P,0,
 -0.093314,2.374958,0.079417\P,0,0.270521,-2.427615,-0.028773\C,0,-0.60
 1824,3.072487,-1.561429\H,0,-1.480919,2.487731,-1.873675\H,0,0.213292,
 2.804632,-2.255396\C,0,-0.915826,4.569845,-1.62923\H,0,-0.078997,5.194
 837,-1.280523\H,0,-1.128889,4.856231,-2.672559\H,0,-1.80627,4.824868,-
 1.03356\C,0,-1.40686,2.862301,1.316553\H,0,-1.409603,2.071234,2.082824
 \C,0,1.411948,3.34361,0.582085\H,0,1.048592,4.31474,0.948814\H,0,1.841
 307,2.822476,1.452412\C,0,2.477251,3.571915,-0.495255\H,0,3.32626,4.12
 2459,-0.058995\H,0,2.865207,2.631679,-0.907385\H,0,2.092288,4.175935,-
 1.330722\C,0,-0.838816,-3.278309,1.186036\H,0,-0.63816,-4.359304,1.106
 381\H,0,-1.870209,-3.135365,0.826458\C,0,-0.686549,-2.797198,2.630737\
 H,0,0.333787,-2.957441,3.013184\H,0,-0.924052,-1.726203,2.724185\H,0,-
 1.377117,-3.349331,3.286839\C,0,1.965605,-3.074166,0.357254\H,0,2.6428
 02,-2.624279,-0.383774\H,0,2.248698,-2.628603,1.323559\C,0,2.132417,-4
 .595163,0.390278\H,0,3.185478,-4.84489,0.598714\H,0,1.524173,-5.066824
 ,1.177327\H,0,1.870617,-5.065113,-0.570454\C,0,-0.200744,-3.18377,-1.6
 5071\H,0,-0.067534,-4.275407,-1.562747\H,0,-1.282922,-3.005386,-1.7558
 19\C,0,0.556564,-2.632095,-2.861337\H,0,0.211904,-3.130464,-3.780989\H
 ,0,0.381879,-1.550593,-2.98028\H,0,1.643697,-2.796272,-2.785801\Sn,0,-
 2.648904,-0.221088,-0.077589\Cl,0,-3.741558,-0.245482,2.11257\Cl,0,-4.
 020288,1.504761,-1.162595\Cl,0,-3.804276,-2.151066,-1.058296\C,0,-1.32
 5088,4.234469,1.992169\H,0,-2.219227,4.378693,2.62024\H,0,-0.447384,4.
 319314,2.650682\H,0,-1.293762,5.064096,1.270373\H,0,-2.358226,2.763878
 ,0.767394\C,0,2.119804,0.094938,0.027177\C,0,2.869826,0.025296,-1.1665
 66\C,0,2.823705,0.210986,1.243273\C,0,4.263957,0.062361,-1.154551\H,0,
 2.359897,-0.065925,-2.128411\C,0,4.218264,0.253279,1.275157\H,0,2.2794
 66,0.260784,2.1901\C,0,4.925742,0.176367,0.071929\H,0,4.842159,0.00569
 8,-2.076821\H,0,4.762467,0.34005,2.21561\O,0,6.987201,0.145309,-0.9716
 56\O,0,6.947359,0.314533,1.182791\N,0,6.390542,0.215013,0.09624\\Versi
 on=EM64L-G09RevD.01\State=1-A\HF=-26064.4866889\RMSD=4.543e-05\Dipole=
 2.1538998,0.3161242,0.007632\Quadrupole=-65.7358456,44.868227,20.86761
 86,-7.4432073,-1.5946742,0.6665849\PG=C01 [X(C18H34Cl3N1O2P2Pt1Sn1)]\\
 @


 THERE IS NO SCIENCE WITHOUT FANCY, NOR ART WITHOUT FACTS.
     -- VLADIMIR NABAKOV
 Job cpu time:       0 days 19 hours 41 minutes 34.2 seconds.
 File lengths (MBytes):  RWF=   1201 Int=      0 D2E=      0 Chk=     86 Scr=      1
 Normal termination of Gaussian 09 at Mon Nov  4 05:56:15 2019.
