 Entering Gaussian System, Link 0=g09
 Input=estrutura99.com
 Output=estrutura99.log
 Initial command:
 /scr/programs/g09/l1.exe "/scr/guest/Gau-26593.inp" -scrdir="/scr/guest/"
 Entering Link 1 = /scr/programs/g09/l1.exe PID=     26594.
  
 Copyright (c) 1988,1990,1992,1993,1995,1998,2003,2009,2013,
            Gaussian, Inc.  All Rights Reserved.
  
 This is part of the Gaussian(R) 09 program.  It is based on
 the Gaussian(R) 03 system (copyright 2003, Gaussian, Inc.),
 the Gaussian(R) 98 system (copyright 1998, Gaussian, Inc.),
 the Gaussian(R) 94 system (copyright 1995, Gaussian, Inc.),
 the Gaussian 92(TM) system (copyright 1992, Gaussian, Inc.),
 the Gaussian 90(TM) system (copyright 1990, Gaussian, Inc.),
 the Gaussian 88(TM) system (copyright 1988, Gaussian, Inc.),
 the Gaussian 86(TM) system (copyright 1986, Carnegie Mellon
 University), and the Gaussian 82(TM) system (copyright 1983,
 Carnegie Mellon University). Gaussian is a federally registered
 trademark of Gaussian, Inc.
  
 This software contains proprietary and confidential information,
 including trade secrets, belonging to Gaussian, Inc.
  
 This software is provided under written license and may be
 used, copied, transmitted, or stored only in accord with that
 written license.
  
 The following legend is applicable only to US Government
 contracts under FAR:
  
                    RESTRICTED RIGHTS LEGEND
  
 Use, reproduction and disclosure by the US Government is
 subject to restrictions as set forth in subparagraphs (a)
 and (c) of the Commercial Computer Software - Restricted
 Rights clause in FAR 52.227-19.
  
 Gaussian, Inc.
 340 Quinnipiac St., Bldg. 40, Wallingford CT 06492
  
  
 ---------------------------------------------------------------
 Warning -- This program may not be used in any manner that
 competes with the business of Gaussian, Inc. or will provide
 assistance to any competitor of Gaussian, Inc.  The licensee
 of this program is prohibited from giving any competitor of
 Gaussian, Inc. access to this program.  By using this program,
 the user acknowledges that Gaussian, Inc. is engaged in the
 business of creating and licensing software in the field of
 computational chemistry and represents and warrants to the
 licensee that it is not a competitor of Gaussian, Inc. and that
 it will not use this program in any manner prohibited above.
 ---------------------------------------------------------------
  

 Cite this work as:
 Gaussian 09, Revision D.01,
 M. J. Frisch, G. W. Trucks, H. B. Schlegel, G. E. Scuseria, 
 M. A. Robb, J. R. Cheeseman, G. Scalmani, V. Barone, B. Mennucci, 
 G. A. Petersson, H. Nakatsuji, M. Caricato, X. Li, H. P. Hratchian, 
 A. F. Izmaylov, J. Bloino, G. Zheng, J. L. Sonnenberg, M. Hada, 
 M. Ehara, K. Toyota, R. Fukuda, J. Hasegawa, M. Ishida, T. Nakajima, 
 Y. Honda, O. Kitao, H. Nakai, T. Vreven, J. A. Montgomery, Jr., 
 J. E. Peralta, F. Ogliaro, M. Bearpark, J. J. Heyd, E. Brothers, 
 K. N. Kudin, V. N. Staroverov, T. Keith, R. Kobayashi, J. Normand, 
 K. Raghavachari, A. Rendell, J. C. Burant, S. S. Iyengar, J. Tomasi, 
 M. Cossi, N. Rega, J. M. Millam, M. Klene, J. E. Knox, J. B. Cross, 
 V. Bakken, C. Adamo, J. Jaramillo, R. Gomperts, R. E. Stratmann, 
 O. Yazyev, A. J. Austin, R. Cammi, C. Pomelli, J. W. Ochterski, 
 R. L. Martin, K. Morokuma, V. G. Zakrzewski, G. A. Voth, 
 P. Salvador, J. J. Dannenberg, S. Dapprich, A. D. Daniels, 
 O. Farkas, J. B. Foresman, J. V. Ortiz, J. Cioslowski, 
 and D. J. Fox, Gaussian, Inc., Wallingford CT, 2013.
 
 ******************************************
 Gaussian 09:  EM64L-G09RevD.01 24-Apr-2013
                13-Dec-2019 
 ******************************************
 %mem=30Gb
 %nproc=24
 Will use up to   24 processors via shared memory.
 ----------------------------------------------------------------------
 #PBEPBE/gen scf=(maxcycle=500,conver=3) NMR=GIAO Scrf=(solvent=Dichlor
 omethane)
 ----------------------------------------------------------------------
 1/38=1/1;
 2/12=2,17=6,18=5,40=1/2;
 3/5=7,11=2,16=1,25=1,30=1,70=2201,72=9,74=1009/1,2,8,3;
 4//1;
 5/5=2,6=3,7=500,38=5,53=9/2;
 8/6=1,10=90,11=11/1;
 10/13=100,45=16/2;
 6/7=2,8=2,9=2,10=2,28=1/1;
 99/9=1/99;
 Leave Link    1 at Fri Dec 13 01:04:06 2019, MaxMem=  4026531840 cpu:         6.3
 (Enter /scr/programs/g09/l101.exe)
 ------------
 estrutura 99
 ------------
 Symbolic Z-matrix:
 Charge =  0 Multiplicity = 1
 Pt                   -0.13623   0.41258   0.15917 
 P                    -2.66555   0.89431   0.08353 
 P                    -0.24826  -1.88516   0.0211 
 C                    -3.07685   1.80196  -1.4738 
 C                    -4.3251    2.43056  -1.65295 
 C                    -2.15638   1.81095  -2.53676 
 C                    -4.62722   3.08135  -2.85075 
 H                    -5.07662   2.40862  -0.85933 
 C                    -2.46928   2.4469   -3.7436 
 H                    -1.19318   1.30959  -2.42421 
 C                    -3.69912   3.09315  -3.89977 
 H                    -5.59592   3.57478  -2.96922 
 H                    -1.7464    2.43429  -4.56323 
 H                    -3.94009   3.59868  -4.83827 
 C                    -3.09237   2.05293   1.47317 
 C                    -2.98964   1.59484   2.80057 
 C                    -3.4312    3.40098   1.26308 
 C                    -3.27896   2.43623   3.87861 
 H                    -2.6614    0.57718   3.0123 
 C                    -3.71495   4.24448   2.34252 
 H                    -3.45149   3.81559   0.25582 
 C                    -3.65336   3.76428   3.65348 
 H                    -3.20083   2.05013   4.89847 
 H                    -3.97707   5.28849   2.15143 
 H                    -3.87887   4.42436   4.49518 
 C                    -4.04357  -0.3682    0.12007 
 C                    -4.62842  -0.79287  -1.08758 
 C                    -4.51702  -0.9333    1.31835 
 C                    -5.67605  -1.71878  -1.09186 
 H                    -4.27773  -0.39444  -2.03973 
 C                    -5.55967  -1.86405   1.31182 
 H                    -4.0918   -0.64781   2.27794 
 C                    -6.15075  -2.25461   0.10733 
 H                    -6.1231   -2.01663  -2.04344 
 H                    -5.91425  -2.27758   2.25935 
 H                    -6.97686  -2.9713    0.10486 
 C                     1.23319  -3.01174  -0.05017 
 C                     1.70589  -3.55781  -1.25368 
 C                     1.85234  -3.39348   1.15412 
 C                     2.76249  -4.47607  -1.25153 
 H                     1.24726  -3.2879   -2.20378 
 C                     2.90759  -4.31084   1.15342 
 H                     1.49751  -2.99684   2.10698 
 C                     3.36289  -4.85819  -0.05052 
 H                     3.10957  -4.89525  -2.19913 
 H                     3.3686   -4.6017    2.0999 
 H                     4.18173  -5.58366  -0.05054 
 C                    -1.15506  -2.32466  -1.52781 
 C                    -2.23851  -3.21232  -1.60001 
 C                    -0.68409  -1.72991  -2.71539 
 C                    -2.8203   -3.51864  -2.8352 
 H                    -2.65329  -3.66128  -0.69824 
 C                    -1.26399  -2.04171  -3.94645 
 H                     0.14973  -1.02399  -2.67768 
 C                    -2.33314  -2.94258  -4.01074 
 H                    -3.66655  -4.20839  -2.87212 
 H                    -0.87994  -1.57693  -4.85766 
 H                    -2.78864  -3.18636  -4.97327 
 C                    -1.09253  -2.62504   1.48854 
 C                    -1.44556  -3.98716   1.54132 
 C                    -1.24506  -1.84255   2.64405 
 C                    -1.98937  -4.53233   2.70667 
 H                    -1.27543  -4.63896   0.68277 
 C                    -1.77158  -2.39503   3.81748 
 H                    -0.91925  -0.79956   2.62528 
 C                    -2.15762  -3.73736   3.84651 
 H                    -2.26849  -5.58884   2.72916 
 H                    -1.8727   -1.77379   4.71119 
 H                    -2.57379  -4.17016   4.76006 
 Sn                    2.53846   0.65611   0.17399 
 Br                    0.01131   2.97661   0.30051 
 Br                    3.50797  -0.45842  -2.02452 
 C                     3.3688    2.67594  -0.15455 
 H                     2.84946   3.05777  -1.04818 
 H                     2.98754   3.2577    0.69765 
 C                     4.88479   2.80622  -0.29562 
 H                     5.38215   2.46105   0.6286 
 H                     5.24585   2.14325  -1.10114 
 C                     5.36084   4.24095  -0.60059 
 H                     6.45575   4.2192   -0.74947 
 H                     4.93098   4.56543  -1.56585 
 C                     5.0233    5.27477   0.47647 
 H                     3.93493   5.42286   0.57743 
 H                     5.40788   4.96358   1.46407 
 H                     5.46743   6.25751   0.24036 
 C                     3.57849  -0.3113    1.882 
 H                     3.82318   0.53341   2.55116 
 H                     2.78734  -0.89007   2.38153 
 C                     4.81048  -1.1883    1.63342 
 H                     5.01934  -1.76133   2.55938 
 H                     4.5847   -1.94724   0.86409 
 C                     6.08654  -0.43769   1.23805 
 H                     6.30262   0.33588   1.99802 
 H                     5.91634   0.10248   0.2916 
 C                     7.30292  -1.35287   1.08385 
 H                     7.14202  -2.10139   0.28946 
 H                     8.2112   -0.78153   0.82391 
 H                     7.51313  -1.90212   2.01924 
 
 NAtoms=     98 NQM=       98 NQMF=       0 NMMI=      0 NMMIF=      0
                NMic=       0 NMicF=      0.
                    Isotopes and Nuclear Properties:
 (Nuclear quadrupole moments (NQMom) in fm**2, nuclear magnetic moments (NMagM)
  in nuclear magnetons)

  Atom         1           2           3           4           5           6           7           8           9          10
 IAtWgt=         195          31          31          12          12          12          12           1          12           1
 AtmWgt= 194.9648000  30.9737634  30.9737634  12.0000000  12.0000000  12.0000000  12.0000000   1.0078250  12.0000000   1.0078250
 NucSpn=           1           1           1           0           0           0           0           1           0           1
 AtZEff=   0.0000000   0.0000000   0.0000000   0.0000000   0.0000000   0.0000000   0.0000000   0.0000000   0.0000000   0.0000000
 NQMom=    0.0000000   0.0000000   0.0000000   0.0000000   0.0000000   0.0000000   0.0000000   0.0000000   0.0000000   0.0000000
 NMagM=    0.6095000   1.1316000   1.1316000   0.0000000   0.0000000   0.0000000   0.0000000   2.7928460   0.0000000   2.7928460
 AtZNuc=  78.0000000  15.0000000  15.0000000   6.0000000   6.0000000   6.0000000   6.0000000   1.0000000   6.0000000   1.0000000

  Atom        11          12          13          14          15          16          17          18          19          20
 IAtWgt=          12           1           1           1          12          12          12          12           1          12
 AtmWgt=  12.0000000   1.0078250   1.0078250   1.0078250  12.0000000  12.0000000  12.0000000  12.0000000   1.0078250  12.0000000
 NucSpn=           0           1           1           1           0           0           0           0           1           0
 AtZEff=   0.0000000   0.0000000   0.0000000   0.0000000   0.0000000   0.0000000   0.0000000   0.0000000   0.0000000   0.0000000
 NQMom=    0.0000000   0.0000000   0.0000000   0.0000000   0.0000000   0.0000000   0.0000000   0.0000000   0.0000000   0.0000000
 NMagM=    0.0000000   2.7928460   2.7928460   2.7928460   0.0000000   0.0000000   0.0000000   0.0000000   2.7928460   0.0000000
 AtZNuc=   6.0000000   1.0000000   1.0000000   1.0000000   6.0000000   6.0000000   6.0000000   6.0000000   1.0000000   6.0000000

  Atom        21          22          23          24          25          26          27          28          29          30
 IAtWgt=           1          12           1           1           1          12          12          12          12           1
 AtmWgt=   1.0078250  12.0000000   1.0078250   1.0078250   1.0078250  12.0000000  12.0000000  12.0000000  12.0000000   1.0078250
 NucSpn=           1           0           1           1           1           0           0           0           0           1
 AtZEff=   0.0000000   0.0000000   0.0000000   0.0000000   0.0000000   0.0000000   0.0000000   0.0000000   0.0000000   0.0000000
 NQMom=    0.0000000   0.0000000   0.0000000   0.0000000   0.0000000   0.0000000   0.0000000   0.0000000   0.0000000   0.0000000
 NMagM=    2.7928460   0.0000000   2.7928460   2.7928460   2.7928460   0.0000000   0.0000000   0.0000000   0.0000000   2.7928460
 AtZNuc=   1.0000000   6.0000000   1.0000000   1.0000000   1.0000000   6.0000000   6.0000000   6.0000000   6.0000000   1.0000000

  Atom        31          32          33          34          35          36          37          38          39          40
 IAtWgt=          12           1          12           1           1           1          12          12          12          12
 AtmWgt=  12.0000000   1.0078250  12.0000000   1.0078250   1.0078250   1.0078250  12.0000000  12.0000000  12.0000000  12.0000000
 NucSpn=           0           1           0           1           1           1           0           0           0           0
 AtZEff=   0.0000000   0.0000000   0.0000000   0.0000000   0.0000000   0.0000000   0.0000000   0.0000000   0.0000000   0.0000000
 NQMom=    0.0000000   0.0000000   0.0000000   0.0000000   0.0000000   0.0000000   0.0000000   0.0000000   0.0000000   0.0000000
 NMagM=    0.0000000   2.7928460   0.0000000   2.7928460   2.7928460   2.7928460   0.0000000   0.0000000   0.0000000   0.0000000
 AtZNuc=   6.0000000   1.0000000   6.0000000   1.0000000   1.0000000   1.0000000   6.0000000   6.0000000   6.0000000   6.0000000

  Atom        41          42          43          44          45          46          47          48          49          50
 IAtWgt=           1          12           1          12           1           1           1          12          12          12
 AtmWgt=   1.0078250  12.0000000   1.0078250  12.0000000   1.0078250   1.0078250   1.0078250  12.0000000  12.0000000  12.0000000
 NucSpn=           1           0           1           0           1           1           1           0           0           0
 AtZEff=   0.0000000   0.0000000   0.0000000   0.0000000   0.0000000   0.0000000   0.0000000   0.0000000   0.0000000   0.0000000
 NQMom=    0.0000000   0.0000000   0.0000000   0.0000000   0.0000000   0.0000000   0.0000000   0.0000000   0.0000000   0.0000000
 NMagM=    2.7928460   0.0000000   2.7928460   0.0000000   2.7928460   2.7928460   2.7928460   0.0000000   0.0000000   0.0000000
 AtZNuc=   1.0000000   6.0000000   1.0000000   6.0000000   1.0000000   1.0000000   1.0000000   6.0000000   6.0000000   6.0000000

  Atom        51          52          53          54          55          56          57          58          59          60
 IAtWgt=          12           1          12           1          12           1           1           1          12          12
 AtmWgt=  12.0000000   1.0078250  12.0000000   1.0078250  12.0000000   1.0078250   1.0078250   1.0078250  12.0000000  12.0000000
 NucSpn=           0           1           0           1           0           1           1           1           0           0
 AtZEff=   0.0000000   0.0000000   0.0000000   0.0000000   0.0000000   0.0000000   0.0000000   0.0000000   0.0000000   0.0000000
 NQMom=    0.0000000   0.0000000   0.0000000   0.0000000   0.0000000   0.0000000   0.0000000   0.0000000   0.0000000   0.0000000
 NMagM=    0.0000000   2.7928460   0.0000000   2.7928460   0.0000000   2.7928460   2.7928460   2.7928460   0.0000000   0.0000000
 AtZNuc=   6.0000000   1.0000000   6.0000000   1.0000000   6.0000000   1.0000000   1.0000000   1.0000000   6.0000000   6.0000000

  Atom        61          62          63          64          65          66          67          68          69          70
 IAtWgt=          12          12           1          12           1          12           1           1           1         118
 AtmWgt=  12.0000000  12.0000000   1.0078250  12.0000000   1.0078250  12.0000000   1.0078250   1.0078250   1.0078250 117.9018000
 NucSpn=           0           0           1           0           1           0           1           1           1           0
 AtZEff=   0.0000000   0.0000000   0.0000000   0.0000000   0.0000000   0.0000000   0.0000000   0.0000000   0.0000000   0.0000000
 NQMom=    0.0000000   0.0000000   0.0000000   0.0000000   0.0000000   0.0000000   0.0000000   0.0000000   0.0000000   0.0000000
 NMagM=    0.0000000   0.0000000   2.7928460   0.0000000   2.7928460   0.0000000   2.7928460   2.7928460   2.7928460   0.0000000
 AtZNuc=   6.0000000   6.0000000   1.0000000   6.0000000   1.0000000   6.0000000   1.0000000   1.0000000   1.0000000  50.0000000

  Atom        71          72          73          74          75          76          77          78          79          80
 IAtWgt=          79          79          12           1           1          12           1           1          12           1
 AtmWgt=  78.9183361  78.9183361  12.0000000   1.0078250   1.0078250  12.0000000   1.0078250   1.0078250  12.0000000   1.0078250
 NucSpn=           3           3           0           1           1           0           1           1           0           1
 AtZEff=   0.0000000   0.0000000   0.0000000   0.0000000   0.0000000   0.0000000   0.0000000   0.0000000   0.0000000   0.0000000
 NQMom=   31.3000000  31.3000000   0.0000000   0.0000000   0.0000000   0.0000000   0.0000000   0.0000000   0.0000000   0.0000000
 NMagM=    2.1063990   2.1063990   0.0000000   2.7928460   2.7928460   0.0000000   2.7928460   2.7928460   0.0000000   2.7928460
 AtZNuc=  35.0000000  35.0000000   6.0000000   1.0000000   1.0000000   6.0000000   1.0000000   1.0000000   6.0000000   1.0000000

  Atom        81          82          83          84          85          86          87          88          89          90
 IAtWgt=           1          12           1           1           1          12           1           1          12           1
 AtmWgt=   1.0078250  12.0000000   1.0078250   1.0078250   1.0078250  12.0000000   1.0078250   1.0078250  12.0000000   1.0078250
 NucSpn=           1           0           1           1           1           0           1           1           0           1
 AtZEff=   0.0000000   0.0000000   0.0000000   0.0000000   0.0000000   0.0000000   0.0000000   0.0000000   0.0000000   0.0000000
 NQMom=    0.0000000   0.0000000   0.0000000   0.0000000   0.0000000   0.0000000   0.0000000   0.0000000   0.0000000   0.0000000
 NMagM=    2.7928460   0.0000000   2.7928460   2.7928460   2.7928460   0.0000000   2.7928460   2.7928460   0.0000000   2.7928460
 AtZNuc=   1.0000000   6.0000000   1.0000000   1.0000000   1.0000000   6.0000000   1.0000000   1.0000000   6.0000000   1.0000000

  Atom        91          92          93          94          95          96          97          98
 IAtWgt=           1          12           1           1          12           1           1           1
 AtmWgt=   1.0078250  12.0000000   1.0078250   1.0078250  12.0000000   1.0078250   1.0078250   1.0078250
 NucSpn=           1           0           1           1           0           1           1           1
 AtZEff=   0.0000000   0.0000000   0.0000000   0.0000000   0.0000000   0.0000000   0.0000000   0.0000000
 NQMom=    0.0000000   0.0000000   0.0000000   0.0000000   0.0000000   0.0000000   0.0000000   0.0000000
 NMagM=    2.7928460   0.0000000   2.7928460   2.7928460   0.0000000   2.7928460   2.7928460   2.7928460
 AtZNuc=   1.0000000   6.0000000   1.0000000   1.0000000   6.0000000   1.0000000   1.0000000   1.0000000
 Leave Link  101 at Fri Dec 13 01:04:07 2019, MaxMem=  4026531840 cpu:         7.0
 (Enter /scr/programs/g09/l202.exe)
 Stoichiometry    C44H48Br2P2PtSn
 Framework group  C1[X(C44H48Br2P2PtSn)]
 Deg. of freedom   288
 Full point group                 C1      NOp   1
 Largest Abelian subgroup         C1      NOp   1
 Largest concise Abelian subgroup C1      NOp   1
                         Standard orientation:                         
 ---------------------------------------------------------------------
 Center     Atomic      Atomic             Coordinates (Angstroms)
 Number     Number       Type             X           Y           Z
 ---------------------------------------------------------------------
      1         78           0       -0.136232   -0.412579   -0.159174
      2         15           0       -2.665550   -0.894313   -0.083528
      3         15           0       -0.248261    1.885159   -0.021096
      4          6           0       -3.076847   -1.801964    1.473801
      5          6           0       -4.325096   -2.430560    1.652950
      6          6           0       -2.156375   -1.810954    2.536755
      7          6           0       -4.627218   -3.081351    2.850751
      8          1           0       -5.076620   -2.408621    0.859327
      9          6           0       -2.469280   -2.446901    3.743602
     10          1           0       -1.193176   -1.309585    2.424211
     11          6           0       -3.699117   -3.093149    3.899769
     12          1           0       -5.595916   -3.574781    2.969217
     13          1           0       -1.746400   -2.434289    4.563231
     14          1           0       -3.940087   -3.598682    4.838274
     15          6           0       -3.092369   -2.052933   -1.473169
     16          6           0       -2.989638   -1.594844   -2.800570
     17          6           0       -3.431202   -3.400984   -1.263080
     18          6           0       -3.278957   -2.436233   -3.878609
     19          1           0       -2.661400   -0.577176   -3.012300
     20          6           0       -3.714952   -4.244477   -2.342521
     21          1           0       -3.451490   -3.815589   -0.255818
     22          6           0       -3.653360   -3.764278   -3.653478
     23          1           0       -3.200826   -2.050127   -4.898472
     24          1           0       -3.977071   -5.288488   -2.151433
     25          1           0       -3.878873   -4.424356   -4.495176
     26          6           0       -4.043565    0.368196   -0.120065
     27          6           0       -4.628423    0.792874    1.087578
     28          6           0       -4.517024    0.933302   -1.318351
     29          6           0       -5.676051    1.718781    1.091860
     30          1           0       -4.277735    0.394436    2.039726
     31          6           0       -5.559667    1.864048   -1.311818
     32          1           0       -4.091795    0.647812   -2.277944
     33          6           0       -6.150747    2.254606   -0.107326
     34          1           0       -6.123099    2.016629    2.043441
     35          1           0       -5.914248    2.277577   -2.259346
     36          1           0       -6.976855    2.971304   -0.104863
     37          6           0        1.233186    3.011743    0.050173
     38          6           0        1.705891    3.557808    1.253684
     39          6           0        1.852339    3.393482   -1.154116
     40          6           0        2.762493    4.476066    1.251531
     41          1           0        1.247260    3.287901    2.203780
     42          6           0        2.907592    4.310836   -1.153423
     43          1           0        1.497507    2.996838   -2.106979
     44          6           0        3.362888    4.858188    0.050523
     45          1           0        3.109573    4.895250    2.199128
     46          1           0        3.368601    4.601697   -2.099895
     47          1           0        4.181728    5.583659    0.050540
     48          6           0       -1.155059    2.324658    1.527812
     49          6           0       -2.238508    3.212317    1.600005
     50          6           0       -0.684086    1.729913    2.715392
     51          6           0       -2.820299    3.518637    2.835202
     52          1           0       -2.653292    3.661283    0.698244
     53          6           0       -1.263995    2.041709    3.946449
     54          1           0        0.149732    1.023995    2.677683
     55          6           0       -2.333137    2.942582    4.010743
     56          1           0       -3.666551    4.208391    2.872115
     57          1           0       -0.879944    1.576928    4.857658
     58          1           0       -2.788635    3.186358    4.973266
     59          6           0       -1.092531    2.625035   -1.488542
     60          6           0       -1.445561    3.987155   -1.541323
     61          6           0       -1.245063    1.842551   -2.644054
     62          6           0       -1.989365    4.532325   -2.706671
     63          1           0       -1.275426    4.638961   -0.682772
     64          6           0       -1.771579    2.395026   -3.817484
     65          1           0       -0.919246    0.799564   -2.625283
     66          6           0       -2.157616    3.737356   -3.846513
     67          1           0       -2.268494    5.588842   -2.729161
     68          1           0       -1.872702    1.773786   -4.711185
     69          1           0       -2.573788    4.170160   -4.760058
     70         50           0        2.538459   -0.656106   -0.173987
     71         35           0        0.011308   -2.976606   -0.300505
     72         35           0        3.507965    0.458420    2.024517
     73          6           0        3.368802   -2.675941    0.154552
     74          1           0        2.849458   -3.057772    1.048175
     75          1           0        2.987539   -3.257700   -0.697647
     76          6           0        4.884792   -2.806223    0.295623
     77          1           0        5.382150   -2.461053   -0.628601
     78          1           0        5.245847   -2.143251    1.101140
     79          6           0        5.360839   -4.240951    0.600586
     80          1           0        6.455746   -4.219195    0.749468
     81          1           0        4.930980   -4.565430    1.565854
     82          6           0        5.023298   -5.274767   -0.476467
     83          1           0        3.934931   -5.422864   -0.577432
     84          1           0        5.407877   -4.963583   -1.464066
     85          1           0        5.467430   -6.257512   -0.240355
     86          6           0        3.578491    0.311295   -1.882002
     87          1           0        3.823178   -0.533409   -2.551159
     88          1           0        2.787341    0.890067   -2.381526
     89          6           0        4.810479    1.188304   -1.633421
     90          1           0        5.019338    1.761332   -2.559381
     91          1           0        4.584700    1.947243   -0.864094
     92          6           0        6.086537    0.437686   -1.238051
     93          1           0        6.302621   -0.335875   -1.998022
     94          1           0        5.916338   -0.102480   -0.291598
     95          6           0        7.302923    1.352872   -1.083852
     96          1           0        7.142023    2.101385   -0.289458
     97          1           0        8.211197    0.781528   -0.823913
     98          1           0        7.513125    1.902121   -2.019241
 ---------------------------------------------------------------------
 Rotational constants (GHZ):      0.0547855      0.0382609      0.0316905
 Leave Link  202 at Fri Dec 13 01:04:07 2019, MaxMem=  4026531840 cpu:         3.0
 (Enter /scr/programs/g09/l301.exe)
 General basis read from cards:  (5D, 7F)
 Centers:       8     10     12     13     14     19     21     23     24     25
 Centers:      30     32     34     35     36     41     43     45     46     47
 Centers:      52     54     56     57     58     63     65     67     68     69
 Centers:      74     75     77     78     80     81     83     84     85     87
 Centers:      88     90     91     93     94     96     97     98
 S 5 1.00
     Exponent=  2.8295215633D+02 Coefficients=  4.3000000000D-04
     Exponent=  8.7062201949D+01 Coefficients=  5.1000000000D-04
     Exponent=  2.6788369830D+01 Coefficients=  6.1600000000D-03
     Exponent=  8.2425753324D+00 Coefficients=  1.3030000000D-02
     Exponent=  2.5361770254D+00 Coefficients=  9.9490000000D-02
 S 1 1.00
     Exponent=  7.8036216165D-01 Coefficients=  1.0000000000D+00
 S 1 1.00
     Exponent=  2.4011143435D-01 Coefficients=  1.0000000000D+00
 P 1 1.00
     Exponent=  8.8150000000D-01 Coefficients=  1.0000000000D+00
 P 1 1.00
     Exponent=  1.7989200000D-01 Coefficients=  1.0000000000D+00
 ****
 Centers:       4      5      6      7      9     11     15     16     17     18
 Centers:      20     22     26     27     28     29     31     33     37     38
 Centers:      39     40     42     44     48     49     50     51     53     55
 Centers:      59     60     61     62     64     66     73     76     79     82
 Centers:      86     89     92     95
 S 6 1.00
     Exponent=  8.8461235339D+03 Coefficients=  5.3000000000D-04
     Exponent=  2.9487078446D+03 Coefficients=  7.7000000000D-04
     Exponent=  9.8290261488D+02 Coefficients=  4.0500000000D-03
     Exponent=  3.2763420496D+02 Coefficients=  1.4030000000D-02
     Exponent=  1.0921140165D+02 Coefficients=  5.3450000000D-02
     Exponent=  3.6403800551D+01 Coefficients=  1.7027000000D-01
 S 1 1.00
     Exponent=  1.2134600184D+01 Coefficients=  1.0000000000D+00
 S 1 1.00
     Exponent=  4.0448667279D+00 Coefficients=  1.0000000000D+00
 S 1 1.00
     Exponent=  1.3482889093D+00 Coefficients=  1.0000000000D+00
 S 1 1.00
     Exponent=  4.4942963643D-01 Coefficients=  1.0000000000D+00
 S 1 1.00
     Exponent=  1.4980987881D-01 Coefficients=  1.0000000000D+00
 P 4 1.00
     Exponent=  3.7294093393D+01 Coefficients=  3.9600000000D-03
     Exponent=  1.1475105659D+01 Coefficients=  1.8890000000D-02
     Exponent=  3.5308017414D+00 Coefficients=  9.4610000000D-02
     Exponent=  1.0864005358D+00 Coefficients=  3.1889000000D-01
 P 1 1.00
     Exponent=  3.3427708794D-01 Coefficients=  1.0000000000D+00
 P 1 1.00
     Exponent=  1.0285448860D-01 Coefficients=  1.0000000000D+00
 D 1 1.00
     Exponent=  4.7750000000D-01 Coefficients=  1.0000000000D+00
 D 1 1.00
     Exponent=  1.1998000000D-01 Coefficients=  1.0000000000D+00
 ****
 Centers:       2      3
 S 7 1.00
     Exponent=  5.9538004301D+04 Coefficients=  9.5000000000D-04
     Exponent=  2.1650183382D+04 Coefficients=  6.1000000000D-04
     Exponent=  7.8727939572D+03 Coefficients=  3.7500000000D-03
     Exponent=  2.8628341663D+03 Coefficients=  9.6300000000D-03
     Exponent=  1.0410306059D+03 Coefficients=  3.2430000000D-02
     Exponent=  3.7855658397D+02 Coefficients=  9.9500000000D-02
     Exponent=  1.3765693962D+02 Coefficients=  2.6570000000D-01
 S 1 1.00
     Exponent=  5.0057068954D+01 Coefficients=  1.0000000000D+00
 S 1 1.00
     Exponent=  1.8202570529D+01 Coefficients=  1.0000000000D+00
 S 1 1.00
     Exponent=  6.6191165560D+00 Coefficients=  1.0000000000D+00
 S 1 1.00
     Exponent=  2.4069514749D+00 Coefficients=  1.0000000000D+00
 S 1 1.00
     Exponent=  8.7525508178D-01 Coefficients=  1.0000000000D+00
 S 1 1.00
     Exponent=  3.1827457519D-01 Coefficients=  1.0000000000D+00
 S 1 1.00
     Exponent=  1.1573620916D-01 Coefficients=  1.0000000000D+00
 S 1 1.00
     Exponent=  4.2085894240D-02 Coefficients=  1.0000000000D+00
 P 5 1.00
     Exponent=  4.8799672315D+02 Coefficients=  2.1600000000D-03
     Exponent=  1.6266557438D+02 Coefficients=  9.7900000000D-03
     Exponent=  5.4221858128D+01 Coefficients=  5.4850000000D-02
     Exponent=  1.8073952709D+01 Coefficients=  2.1770000000D-01
     Exponent=  6.0246509031D+00 Coefficients=  4.8978000000D-01
 P 1 1.00
     Exponent=  2.0082169677D+00 Coefficients=  1.0000000000D+00
 P 1 1.00
     Exponent=  6.6940565590D-01 Coefficients=  1.0000000000D+00
 P 1 1.00
     Exponent=  2.2313521863D-01 Coefficients=  1.0000000000D+00
 P 1 1.00
     Exponent=  7.4378406211D-02 Coefficients=  1.0000000000D+00
 P 1 1.00
     Exponent=  2.4792802070D-02 Coefficients=  1.0000000000D+00
 D 1 1.00
     Exponent=  3.5395000000D-01 Coefficients=  1.0000000000D+00
 D 1 1.00
     Exponent=  8.9098000000D-02 Coefficients=  1.0000000000D+00
 ****
 Centers:      71     72
 S 7 1.00
     Exponent=  3.4867099512D+05 Coefficients=  2.4100000000D-03
     Exponent=  1.3946839805D+05 Coefficients=  1.2000000000D-04
     Exponent=  5.5787359218D+04 Coefficients=  5.8500000000D-03
     Exponent=  2.2314943687D+04 Coefficients=  8.2100000000D-03
     Exponent=  8.9259774750D+03 Coefficients=  2.4090000000D-02
     Exponent=  3.5703909900D+03 Coefficients=  5.7250000000D-02
     Exponent=  1.4281563960D+03 Coefficients=  1.4467000000D-01
 S 1 1.00
     Exponent=  5.7126255840D+02 Coefficients=  1.0000000000D+00
 S 1 1.00
     Exponent=  2.2850502336D+02 Coefficients=  1.0000000000D+00
 S 1 1.00
     Exponent=  9.1402009344D+01 Coefficients=  1.0000000000D+00
 S 1 1.00
     Exponent=  3.6560803737D+01 Coefficients=  1.0000000000D+00
 S 1 1.00
     Exponent=  1.4624321495D+01 Coefficients=  1.0000000000D+00
 S 1 1.00
     Exponent=  5.8497285980D+00 Coefficients=  1.0000000000D+00
 S 1 1.00
     Exponent=  2.3398914392D+00 Coefficients=  1.0000000000D+00
 S 1 1.00
     Exponent=  9.3595657568D-01 Coefficients=  1.0000000000D+00
 S 1 1.00
     Exponent=  3.7438263027D-01 Coefficients=  1.0000000000D+00
 S 1 1.00
     Exponent=  1.4975305211D-01 Coefficients=  1.0000000000D+00
 S 1 1.00
     Exponent=  5.9901220843D-02 Coefficients=  1.0000000000D+00
 P 5 1.00
     Exponent=  4.2715043612D+03 Coefficients=  2.0900000000D-03
     Exponent=  1.5532743132D+03 Coefficients=  5.5700000000D-03
     Exponent=  5.6482702297D+02 Coefficients=  3.0250000000D-02
     Exponent=  2.0539164472D+02 Coefficients=  1.2196000000D-01
     Exponent=  7.4687870806D+01 Coefficients=  3.7861000000D-01
 P 1 1.00
     Exponent=  2.7159225748D+01 Coefficients=  1.0000000000D+00
 P 1 1.00
     Exponent=  9.8760820901D+00 Coefficients=  1.0000000000D+00
 P 1 1.00
     Exponent=  3.5913025782D+00 Coefficients=  1.0000000000D+00
 P 1 1.00
     Exponent=  1.3059282103D+00 Coefficients=  1.0000000000D+00
 P 1 1.00
     Exponent=  4.7488298555D-01 Coefficients=  1.0000000000D+00
 P 1 1.00
     Exponent=  1.7268472202D-01 Coefficients=  1.0000000000D+00
 P 1 1.00
     Exponent=  6.2794444370D-02 Coefficients=  1.0000000000D+00
 P 1 1.00
     Exponent=  2.2834343407D-02 Coefficients=  1.0000000000D+00
 D 4 1.00
     Exponent=  1.5776624282D+02 Coefficients=  7.9800000000D-03
     Exponent=  5.2588747607D+01 Coefficients=  4.9870000000D-02
     Exponent=  1.7529582536D+01 Coefficients=  2.2405000000D-01
     Exponent=  5.8431941786D+00 Coefficients=  4.4250000000D-01
 D 1 1.00
     Exponent=  1.9477313929D+00 Coefficients=  1.0000000000D+00
 D 1 1.00
     Exponent=  6.4924379762D-01 Coefficients=  1.0000000000D+00
 F 1 1.00
     Exponent=  1.6480000000D+00 Coefficients=  1.0000000000D+00
 F 1 1.00
     Exponent=  4.5490000000D-01 Coefficients=  1.0000000000D+00
 ****
 Centers:      70
 S 8 1.00
     Exponent=  7.5448214551D+05 Coefficients=  4.4300000000D-03
     Exponent=  3.3532539800D+05 Coefficients=  1.9800000000D-03
     Exponent=  1.4903351022D+05 Coefficients=  9.0500000000D-03
     Exponent=  6.6237115655D+04 Coefficients=  4.8700000000D-03
     Exponent=  2.9438718069D+04 Coefficients=  2.0770000000D-02
     Exponent=  1.3083874697D+04 Coefficients=  3.2900000000D-02
     Exponent=  5.8150554210D+03 Coefficients=  7.7010000000D-02
     Exponent=  2.5844690760D+03 Coefficients=  1.5160000000D-01
 S 1 1.00
     Exponent=  1.1486529227D+03 Coefficients=  1.0000000000D+00
 S 1 1.00
     Exponent=  5.1051241008D+02 Coefficients=  1.0000000000D+00
 S 1 1.00
     Exponent=  2.2689440448D+02 Coefficients=  1.0000000000D+00
 S 1 1.00
     Exponent=  1.0084195755D+02 Coefficients=  1.0000000000D+00
 S 1 1.00
     Exponent=  4.4818647798D+01 Coefficients=  1.0000000000D+00
 S 1 1.00
     Exponent=  1.9919399021D+01 Coefficients=  1.0000000000D+00
 S 1 1.00
     Exponent=  8.8530662317D+00 Coefficients=  1.0000000000D+00
 S 1 1.00
     Exponent=  3.9346961030D+00 Coefficients=  1.0000000000D+00
 S 1 1.00
     Exponent=  1.7487538235D+00 Coefficients=  1.0000000000D+00
 S 1 1.00
     Exponent=  7.7722392158D-01 Coefficients=  1.0000000000D+00
 S 1 1.00
     Exponent=  3.4543285403D-01 Coefficients=  1.0000000000D+00
 S 1 1.00
     Exponent=  1.5352571290D-01 Coefficients=  1.0000000000D+00
 S 1 1.00
     Exponent=  6.8233650180D-02 Coefficients=  1.0000000000D+00
 S 1 1.00
     Exponent=  1.3478251887D-02 Coefficients=  1.0000000000D+00
 P 5 1.00
     Exponent=  1.0090658304D+04 Coefficients=  2.7500000000D-03
     Exponent=  4.0362633217D+03 Coefficients=  4.1800000000D-03
     Exponent=  1.6145053287D+03 Coefficients=  2.0890000000D-02
     Exponent=  6.4580213147D+02 Coefficients=  7.1370000000D-02
     Exponent=  2.5832085259D+02 Coefficients=  2.2613000000D-01
 P 1 1.00
     Exponent=  1.0332834104D+02 Coefficients=  1.0000000000D+00
 P 1 1.00
     Exponent=  4.1331336414D+01 Coefficients=  1.0000000000D+00
 P 1 1.00
     Exponent=  1.6532534566D+01 Coefficients=  1.0000000000D+00
 P 1 1.00
     Exponent=  6.6130138263D+00 Coefficients=  1.0000000000D+00
 P 1 1.00
     Exponent=  2.6452055305D+00 Coefficients=  1.0000000000D+00
 P 1 1.00
     Exponent=  1.0580822122D+00 Coefficients=  1.0000000000D+00
 P 1 1.00
     Exponent=  4.2323288488D-01 Coefficients=  1.0000000000D+00
 P 1 1.00
     Exponent=  1.6929315395D-01 Coefficients=  1.0000000000D+00
 P 1 1.00
     Exponent=  6.7717261581D-02 Coefficients=  1.0000000000D+00
 P 1 1.00
     Exponent=  2.7086904632D-02 Coefficients=  1.0000000000D+00
 P 1 1.00
     Exponent=  1.0834761853D-02 Coefficients=  1.0000000000D+00
 D 4 1.00
     Exponent=  5.5430250651D+02 Coefficients=  4.3700000000D-03
     Exponent=  2.0156454782D+02 Coefficients=  2.5110000000D-02
     Exponent=  7.3296199207D+01 Coefficients=  1.3316000000D-01
     Exponent=  2.6653163348D+01 Coefficients=  3.8900000000D-01
 D 1 1.00
     Exponent=  9.6920593993D+00 Coefficients=  1.0000000000D+00
 D 1 1.00
     Exponent=  3.5243852361D+00 Coefficients=  1.0000000000D+00
 D 1 1.00
     Exponent=  1.2815946313D+00 Coefficients=  1.0000000000D+00
 D 1 1.00
     Exponent=  4.6603441139D-01 Coefficients=  1.0000000000D+00
 D 1 1.00
     Exponent=  1.6946705869D-01 Coefficients=  1.0000000000D+00
 F 1 1.00
     Exponent=  1.3140000000D+00 Coefficients=  1.0000000000D+00
 F 1 1.00
     Exponent=  1.9993000000D-01 Coefficients=  1.0000000000D+00
 ****
 Centers:       1
 S 9 1.00
     Exponent=  2.1644816090D+06 Coefficients=  1.2320000000D-02
     Exponent=  1.0822408045D+06 Coefficients=  1.2970000000D-02
     Exponent=  5.4112040224D+05 Coefficients=  2.6370000000D-02
     Exponent=  2.7056020112D+05 Coefficients=  9.0400000000D-03
     Exponent=  1.3528010056D+05 Coefficients=  3.4980000000D-02
     Exponent=  6.7640050280D+04 Coefficients=  1.2220000000D-02
     Exponent=  3.3820025140D+04 Coefficients=  6.0520000000D-02
     Exponent=  1.6910012570D+04 Coefficients=  6.4930000000D-02
     Exponent=  8.4550062850D+03 Coefficients=  1.3819000000D-01
 S 1 1.00
     Exponent=  4.2275031425D+03 Coefficients=  1.0000000000D+00
 S 1 1.00
     Exponent=  2.1137515713D+03 Coefficients=  1.0000000000D+00
 S 1 1.00
     Exponent=  1.0568757856D+03 Coefficients=  1.0000000000D+00
 S 1 1.00
     Exponent=  5.2843789281D+02 Coefficients=  1.0000000000D+00
 S 1 1.00
     Exponent=  2.6421894641D+02 Coefficients=  1.0000000000D+00
 S 1 1.00
     Exponent=  1.3210947320D+02 Coefficients=  1.0000000000D+00
 S 1 1.00
     Exponent=  6.6054736602D+01 Coefficients=  1.0000000000D+00
 S 1 1.00
     Exponent=  3.3027368301D+01 Coefficients=  1.0000000000D+00
 S 1 1.00
     Exponent=  1.6513684150D+01 Coefficients=  1.0000000000D+00
 S 1 1.00
     Exponent=  8.2568420752D+00 Coefficients=  1.0000000000D+00
 S 1 1.00
     Exponent=  4.1284210376D+00 Coefficients=  1.0000000000D+00
 S 1 1.00
     Exponent=  2.0642105188D+00 Coefficients=  1.0000000000D+00
 S 1 1.00
     Exponent=  1.0321052594D+00 Coefficients=  1.0000000000D+00
 S 1 1.00
     Exponent=  5.1605262970D-01 Coefficients=  1.0000000000D+00
 S 1 1.00
     Exponent=  2.5802631485D-01 Coefficients=  1.0000000000D+00
 S 1 1.00
     Exponent=  1.2901315743D-01 Coefficients=  1.0000000000D+00
 S 1 1.00
     Exponent=  6.4506578713D-02 Coefficients=  1.0000000000D+00
 P 7 1.00
     Exponent=  3.2357915258D+04 Coefficients=  5.0200000000D-03
     Exponent=  1.4381295670D+04 Coefficients=  2.0200000000D-03
     Exponent=  6.3916869645D+03 Coefficients=  1.8070000000D-02
     Exponent=  2.8407497620D+03 Coefficients=  3.6620000000D-02
     Exponent=  1.2625554498D+03 Coefficients=  1.1172000000D-01
     Exponent=  5.6113575545D+02 Coefficients=  2.5586000000D-01
     Exponent=  2.4939366909D+02 Coefficients=  4.2608000000D-01
 P 1 1.00
     Exponent=  1.1084163071D+02 Coefficients=  1.0000000000D+00
 P 1 1.00
     Exponent=  4.9262946981D+01 Coefficients=  1.0000000000D+00
 P 1 1.00
     Exponent=  2.1894643103D+01 Coefficients=  1.0000000000D+00
 P 1 1.00
     Exponent=  9.7309524900D+00 Coefficients=  1.0000000000D+00
 P 1 1.00
     Exponent=  4.3248677733D+00 Coefficients=  1.0000000000D+00
 P 1 1.00
     Exponent=  1.9221634548D+00 Coefficients=  1.0000000000D+00
 P 1 1.00
     Exponent=  8.5429486881D-01 Coefficients=  1.0000000000D+00
 P 1 1.00
     Exponent=  3.7968660836D-01 Coefficients=  1.0000000000D+00
 P 1 1.00
     Exponent=  1.6874960372D-01 Coefficients=  1.0000000000D+00
 P 1 1.00
     Exponent=  7.4999823874D-02 Coefficients=  1.0000000000D+00
 P 1 1.00
     Exponent=  3.3333255055D-02 Coefficients=  1.0000000000D+00
 D 5 1.00
     Exponent=  1.9119003508D+03 Coefficients=  4.3300000000D-03
     Exponent=  7.6476014031D+02 Coefficients=  1.7780000000D-02
     Exponent=  3.0590405613D+02 Coefficients=  8.9710000000D-02
     Exponent=  1.2236162245D+02 Coefficients=  3.1123000000D-01
     Exponent=  4.8944648980D+01 Coefficients=  5.3206000000D-01
 D 1 1.00
     Exponent=  1.9577859592D+01 Coefficients=  1.0000000000D+00
 D 1 1.00
     Exponent=  7.8311438368D+00 Coefficients=  1.0000000000D+00
 D 1 1.00
     Exponent=  3.1324575347D+00 Coefficients=  1.0000000000D+00
 D 1 1.00
     Exponent=  1.2529830139D+00 Coefficients=  1.0000000000D+00
 D 1 1.00
     Exponent=  5.0119320556D-01 Coefficients=  1.0000000000D+00
 D 1 1.00
     Exponent=  2.0047728222D-01 Coefficients=  1.0000000000D+00
 D 1 1.00
     Exponent=  8.0190912889D-02 Coefficients=  1.0000000000D+00
 D 1 1.00
     Exponent=  3.2076365156D-02 Coefficients=  1.0000000000D+00
 F 4 1.00
     Exponent=  8.2289680979D+01 Coefficients=  6.1870000000D-02
     Exponent=  2.9923520356D+01 Coefficients=  2.4823000000D-01
     Exponent=  1.0881280130D+01 Coefficients=  4.9956000000D-01
     Exponent=  3.9568291380D+00 Coefficients=  4.0380000000D-01
 F 1 1.00
     Exponent=  1.4388469593D+00 Coefficients=  1.0000000000D+00
 F 1 1.00
     Exponent=  5.2321707610D-01 Coefficients=  1.0000000000D+00
 G 1 1.00
     Exponent=  2.6700000000D+00 Coefficients=  1.0000000000D+00
 G 1 1.00
     Exponent=  9.0960000000D-01 Coefficients=  1.0000000000D+00
 ****
 Ernie: Thresh=  0.10000D-02 Tol=  0.10000D-05 Strict=F.
 There are  2127 symmetry adapted cartesian basis functions of A   symmetry.
 There are  1975 symmetry adapted basis functions of A   symmetry.
  1975 basis functions,  3160 primitive gaussians,  2127 cartesian basis functions
   270 alpha electrons      270 beta electrons
       nuclear repulsion energy     15311.9451540134 Hartrees.
 IExCor= 1009 DFT=T Ex=PBE Corr=PBE ExCW=0 ScaHFX=  0.000000
 ScaDFX=  1.000000  1.000000  1.000000  1.000000 ScalE2=  1.000000  1.000000
 IRadAn=      0 IRanWt=     -1 IRanGd=            0 ICorTp=0 IEmpDi=  4
 NAtoms=   98 NActive=   98 NUniq=   98 SFac= 1.00D+00 NAtFMM=   60 NAOKFM=T Big=T
 Integral buffers will be    131072 words long.
 Raffenetti 2 integral format.
 Two-electron integral symmetry is turned on.
 ------------------------------------------------------------------------------
 Polarizable Continuum Model (PCM)
 =================================
 Model                : PCM (using non-symmetric T matrix).
 Atomic radii         : UFF (Universal Force Field).
 Polarization charges : Total charges.
 Charge compensation  : None.
 Solution method      : On-the-fly selection.
 Cavity type          : Scaled VdW (van der Waals Surface) (Alpha=1.100).
 Cavity algorithm     : GePol (No added spheres)
                        Default sphere list used, NSphG=   98.
                        Lebedev-Laikov grids with approx.  5.0 points / Ang**2.
                        Smoothing algorithm: Karplus/York (Gamma=1.0000).
                        Polarization charges: spherical gaussians, with
                                              point-specific exponents (IZeta= 3).
                        Self-potential: point-specific (ISelfS= 7).
                        Self-field    : sphere-specific E.n sum rule (ISelfD= 2).
 Solvent              : Dichloromethane, Eps=   8.930000 Eps(inf)=   2.028346
 ------------------------------------------------------------------------------
 GePol: Number of generator spheres                  =      98
 GePol: Total number of spheres                      =      98
 GePol: Number of exposed spheres                    =      98 (100.00%)
 GePol: Number of points                             =    6875
 GePol: Average weight of points                     =       0.13
 GePol: Minimum weight of points                     =   0.16D-11
 GePol: Maximum weight of points                     =    0.21838
 GePol: Number of points with low weight             =     554
 GePol: Fraction of low-weight points (<1% of avg)   =       8.06%
 GePol: Cavity surface area                          =    863.560 Ang**2
 GePol: Cavity volume                                =   1084.498 Ang**3
 Leave Link  301 at Fri Dec 13 01:04:07 2019, MaxMem=  4026531840 cpu:        10.0
 (Enter /scr/programs/g09/l302.exe)
 NPDir=0 NMtPBC=     1 NCelOv=     1 NCel=       1 NClECP=     1 NCelD=      1
         NCelK=      1 NCelE2=     1 NClLst=     1 CellRange=     0.0.
 One-electron integrals computed using PRISM.
 NBasis=  1975 RedAO= T EigKep=  1.49D-06  NBF=  1975
 NBsUse=  1975 1.00D-06 EigRej= -1.00D+00 NBFU=  1975
 Precomputing XC quadrature grid using
 IXCGrd= 4 IRadAn=           0 IRanWt=          -1 IRanGd=           0 AccXCQ= 0.00D+00.
 Defaulting to unpruned grid for atomic number  78.
 Defaulting to unpruned grid for atomic number  50.
 Generated NRdTot=       0 NPtTot=           0 NUsed=           0 NTot=          32
 NSgBfM=  1812  1818  1818  1819  1819 MxSgAt=    98 MxSgA2=    98.
 Leave Link  302 at Fri Dec 13 01:04:34 2019, MaxMem=  4026531840 cpu:       625.5
 (Enter /scr/programs/g09/l308.exe)
 Leave Link  308 at Fri Dec 13 01:04:39 2019, MaxMem=  4026531840 cpu:       111.1
 (Enter /scr/programs/g09/l303.exe)
 DipDrv:  MaxL=1.
 Leave Link  303 at Fri Dec 13 01:04:41 2019, MaxMem=  4026531840 cpu:        43.1
 (Enter /scr/programs/g09/l401.exe)
 ExpMin= 1.08D-02 ExpMax= 2.16D+06 ExpMxC= 2.16D+06 IAcc=4 IRadAn=    199590 AccDes= 0.00D+00
 Harris functional with IExCor= 1009 and IRadAn=  199590 diagonalized for initial guess.
 HarFok:  IExCor= 1009 AccDes= 0.00D+00 IRadAn=    199590 IDoV= 1 UseB2=F ITyADJ=14
 ICtDFT=  3500011 ScaDFX=  1.000000  1.000000  1.000000  1.000000
 FoFCou: FMM=F IPFlag=           0 FMFlag=      100000 FMFlg1=        2001
         NFxFlg=           0 DoJE=T BraDBF=F KetDBF=T FulRan=T
         wScrn=  0.000000 ICntrl=     500 IOpCl=  0 I1Cent=   200000004 NGrid=           0
         NMat0=    1 NMatS0=      1 NMatT0=    0 NMatD0=    1 NMtDS0=    0 NMtDT0=    0
 Petite list used in FoFCou.
 Harris En= -30628.7230798811    
 JPrj=0 DoOrth=F DoCkMO=F.
 Leave Link  401 at Fri Dec 13 01:07:22 2019, MaxMem=  4026531840 cpu:      3866.1
 (Enter /scr/programs/g09/l502.exe)
 Closed shell SCF:
 Using DIIS extrapolation, IDIIS=  1040.
 Integral symmetry usage will be decided dynamically.
 IVT=    13893283 IEndB=    13893283 NGot=  4026531840 MDV=  4017415814
 LenX=  4017415814 LenY=  4012889558
 Requested convergence on RMS density matrix=1.00D-03 within 500 cycles.
 Requested convergence on MAX density matrix=1.00D-01.
 Requested convergence on             energy=1.00D-01.
 No special actions if energy rises.
 Fock matrices will be formed incrementally for  20 cycles.

 Cycle   1  Pass 1  IDiag  1:
 FoFJK:  IHMeth= 1 ICntrl=     500 DoSepK=F KAlg= 0 I1Cent=   0 FoldK=F
 IRaf= 600000000 NMat=   1 IRICut=       1 DoRegI=T DoRafI=F ISym2E= 0.
 FoFCou: FMM=T IPFlag=           0 FMFlag=      100000 FMFlg1=        2001
         NFxFlg=           0 DoJE=T BraDBF=F KetDBF=F FulRan=T
         wScrn=  0.000000 ICntrl=     500 IOpCl=  0 I1Cent=           0 NGrid=           0
         NMat0=    1 NMatS0=      1 NMatT0=    0 NMatD0=    1 NMtDS0=    0 NMtDT0=    0
 Symmetry not used in FoFCou.
 FMM levels:  10  Number of levels for PrismC:   9
 Defaulting to unpruned grid for atomic number  78.
 Defaulting to unpruned grid for atomic number  78.
 Defaulting to unpruned grid for atomic number  78.
 Defaulting to unpruned grid for atomic number  78.
 Defaulting to unpruned grid for atomic number  78.
 Defaulting to unpruned grid for atomic number  78.
 Defaulting to unpruned grid for atomic number  78.
 Defaulting to unpruned grid for atomic number  78.
 Defaulting to unpruned grid for atomic number  78.
 Defaulting to unpruned grid for atomic number  78.
 Defaulting to unpruned grid for atomic number  78.
 Defaulting to unpruned grid for atomic number  78.
 Defaulting to unpruned grid for atomic number  78.
 Defaulting to unpruned grid for atomic number  78.
 Defaulting to unpruned grid for atomic number  78.
 Defaulting to unpruned grid for atomic number  78.
 Defaulting to unpruned grid for atomic number  78.
 Defaulting to unpruned grid for atomic number  78.
 Defaulting to unpruned grid for atomic number  78.
 Defaulting to unpruned grid for atomic number  78.
 Defaulting to unpruned grid for atomic number  78.
 Defaulting to unpruned grid for atomic number  78.
 Defaulting to unpruned grid for atomic number  78.
 Defaulting to unpruned grid for atomic number  78.
 Inv3:  Mode=1 IEnd=   141796875.
 Iteration    1 A*A^-1 deviation from unit magnitude is 1.03D-14 for   6400.
 Iteration    1 A*A^-1 deviation from orthogonality  is 1.82D-14 for   5240   4640.
 Iteration    1 A^-1*A deviation from unit magnitude is 1.19D-14 for   6400.
 Iteration    1 A^-1*A deviation from orthogonality  is 2.28D-09 for   5412   5401.
 Iteration    2 A*A^-1 deviation from unit magnitude is 1.09D-14 for   3686.
 Iteration    2 A*A^-1 deviation from orthogonality  is 1.37D-14 for   5479    455.
 Iteration    2 A^-1*A deviation from unit magnitude is 1.89D-15 for   2853.
 Iteration    2 A^-1*A deviation from orthogonality  is 7.63D-16 for   5339   1926.
 E= -30607.6611804685    
 DIIS: error= 1.64D-01 at cycle   1 NSaved=   1.
 NSaved= 1 IEnMin= 1 EnMin= -30607.6611804685     IErMin= 1 ErrMin= 1.64D-01
 ErrMax= 1.64D-01  0.00D+00 EMaxC= 1.00D-01 BMatC= 3.39D+02 BMatP= 3.39D+02
 IDIUse=3 WtCom= 0.00D+00 WtEn= 1.00D+00
 Coeff-Com:  0.100D+01
 Coeff-En:   0.100D+01
 Coeff:      0.100D+01
 Gap=     0.774 Goal=   None    Shift=    0.000
 GapD=    0.774 DampG=2.000 DampE=0.125 DampFc=0.2500 IDamp=-1.
 Damping current iteration by 2.50D-01
 RMSDP=1.93D-02 MaxDP=1.03D+01              OVMax= 7.35D-01

 Cycle   2  Pass 1  IDiag  1:
 RMSU=  4.41D-03    CP:  1.14D+00
 E= -30609.5078523109     Delta-E=       -1.846671842395 Rises=F Damp=T
 DIIS: error= 1.22D-01 at cycle   2 NSaved=   2.
 NSaved= 2 IEnMin= 2 EnMin= -30609.5078523109     IErMin= 2 ErrMin= 1.22D-01
 ErrMax= 1.22D-01  0.00D+00 EMaxC= 1.00D-01 BMatC= 1.63D+02 BMatP= 3.39D+02
 IDIUse=3 WtCom= 0.00D+00 WtEn= 1.00D+00
 Coeff-Com: -0.196D+01 0.296D+01
 Coeff-En:   0.808D-01 0.919D+00
 Coeff:      0.808D-01 0.919D+00
 Gap=     0.024 Goal=   None    Shift=    0.000
 RMSDP=7.70D-03 MaxDP=4.20D+00 DE=-1.85D+00 OVMax= 8.34D-01

 Cycle   3  Pass 1  IDiag  1:
 RMSU=  4.93D-03    CP:  7.86D-01  2.85D-01
 E= -30611.9331151449     Delta-E=       -2.425262834025 Rises=F Damp=F
 DIIS: error= 4.95D-02 at cycle   3 NSaved=   3.
 NSaved= 3 IEnMin= 3 EnMin= -30611.9331151449     IErMin= 3 ErrMin= 4.95D-02
 ErrMax= 4.95D-02  0.00D+00 EMaxC= 1.00D-01 BMatC= 1.19D+01 BMatP= 1.63D+02
 IDIUse=3 WtCom= 5.05D-01 WtEn= 4.95D-01
 EnCoef did   100 forward-backward iterations
 Coeff-Com:  0.887D+00-0.106D+01 0.117D+01
 Coeff-En:   0.225D+00 0.297D-02 0.772D+00
 Coeff:      0.559D+00-0.535D+00 0.976D+00
 Gap=     0.166 Goal=   None    Shift=    0.000
 RMSDP=1.65D-02 MaxDP=8.42D+00 DE=-2.43D+00 OVMax= 8.49D-01

 Cycle   4  Pass 1  IDiag  1:
 RMSU=  9.78D-03    CP:  1.49D+00  1.69D+00 -2.67D-01
 E= -30594.6442680420     Delta-E=       17.288847102929 Rises=F Damp=F
 DIIS: error= 3.44D-02 at cycle   4 NSaved=   4.
 NSaved= 4 IEnMin= 3 EnMin= -30611.9331151449     IErMin= 4 ErrMin= 3.44D-02
 ErrMax= 3.44D-02  0.00D+00 EMaxC= 1.00D-01 BMatC= 1.45D+01 BMatP= 1.19D+01
 IDIUse=2 WtCom= 0.00D+00 WtEn= 1.00D+00
 EnCoef did     4 forward-backward iterations
 Coeff-En:   0.210D+00 0.000D+00 0.755D+00 0.346D-01
 Coeff:      0.210D+00 0.000D+00 0.755D+00 0.346D-01
 Gap=    -0.114 Goal=   None    Shift=    0.000
 RMSDP=1.35D-02 MaxDP=6.83D+00 DE= 1.73D+01 OVMax= 9.45D-01

 Cycle   5  Pass 1  IDiag  1:
 RMSU=  3.89D-03    CP:  9.65D-01  2.80D-01  4.26D-01  2.01D-01
 E= -30605.9178409552     Delta-E=      -11.273572913196 Rises=F Damp=F
 DIIS: error= 5.64D-02 at cycle   5 NSaved=   5.
 NSaved= 5 IEnMin= 3 EnMin= -30611.9331151449     IErMin= 4 ErrMin= 3.44D-02
 ErrMax= 5.64D-02  0.00D+00 EMaxC= 1.00D-01 BMatC= 1.06D+01 BMatP= 1.19D+01
 IDIUse=3 WtCom= 4.36D-01 WtEn= 5.64D-01
 EnCoef did   100 forward-backward iterations
 Coeff-Com:  0.402D+00-0.475D+00 0.688D+00 0.196D+00 0.189D+00
 Coeff-En:   0.000D+00 0.000D+00 0.738D+00 0.519D-02 0.257D+00
 Coeff:      0.176D+00-0.207D+00 0.716D+00 0.886D-01 0.227D+00
 Gap=    -0.027 Goal=   None    Shift=    0.000
 RMSDP=5.85D-03 MaxDP=1.05D+00 DE=-1.13D+01 OVMax= 4.35D-01

 Cycle   6  Pass 1  IDiag  1:
 RMSU=  2.79D-03    CP:  9.19D-01  5.39D-01  3.78D-01  7.01D-02 -2.31D-01
 E= -30613.1903174632     Delta-E=       -7.272476507998 Rises=F Damp=F
 DIIS: error= 1.08D-02 at cycle   6 NSaved=   6.
 NSaved= 6 IEnMin= 6 EnMin= -30613.1903174632     IErMin= 6 ErrMin= 1.08D-02
 ErrMax= 1.08D-02  0.00D+00 EMaxC= 1.00D-01 BMatC= 9.98D-01 BMatP= 1.06D+01
 IDIUse=3 WtCom= 8.92D-01 WtEn= 1.08D-01
 EnCoef did     6 forward-backward iterations
 Coeff-Com:  0.508D-01-0.517D-01 0.267D+00 0.629D-01 0.119D+00 0.551D+00
 Coeff-En:   0.000D+00 0.000D+00 0.538D-01 0.000D+00 0.116D+00 0.830D+00
 Coeff:      0.453D-01-0.462D-01 0.244D+00 0.562D-01 0.119D+00 0.581D+00
 Gap=     0.184 Goal=   None    Shift=    0.000
 RMSDP=4.38D-03 MaxDP=8.74D-01 DE=-7.27D+00 OVMax= 1.84D-01

 Cycle   7  Pass 1  IDiag  1:
 RMSU=  1.48D-03    CP:  8.60D-01  1.94D-01  7.24D-01  6.07D-02  1.52D-01
                    CP: -6.70D-02
 E= -30613.5043292665     Delta-E=       -0.314011803304 Rises=F Damp=F
 DIIS: error= 4.43D-03 at cycle   7 NSaved=   7.
 NSaved= 7 IEnMin= 7 EnMin= -30613.5043292665     IErMin= 7 ErrMin= 4.43D-03
 ErrMax= 4.43D-03  0.00D+00 EMaxC= 1.00D-01 BMatC= 2.89D-01 BMatP= 9.98D-01
 IDIUse=3 WtCom= 9.56D-01 WtEn= 4.43D-02
 Coeff-Com: -0.528D-01 0.733D-01 0.564D-01 0.118D-01 0.184D-01 0.355D+00
 Coeff-Com:  0.538D+00
 Coeff-En:   0.000D+00 0.000D+00 0.000D+00 0.000D+00 0.000D+00 0.357D+00
 Coeff-En:   0.643D+00
 Coeff:     -0.505D-01 0.701D-01 0.539D-01 0.113D-01 0.175D-01 0.355D+00
 Coeff:      0.542D+00
 Gap=     0.108 Goal=   None    Shift=    0.000
 RMSDP=1.56D-03 MaxDP=2.21D-01 DE=-3.14D-01 OVMax= 1.37D-01

 Cycle   8  Pass 1  IDiag  1:
 RMSU=  8.65D-04    CP:  8.64D-01  2.29D-01  6.04D-01  6.49D-02  5.16D-02
                    CP:  2.63D-01  6.31D-01
 E= -30613.6861672737     Delta-E=       -0.181838007229 Rises=F Damp=F
 DIIS: error= 2.64D-03 at cycle   8 NSaved=   8.
 NSaved= 8 IEnMin= 8 EnMin= -30613.6861672737     IErMin= 8 ErrMin= 2.64D-03
 ErrMax= 2.64D-03  0.00D+00 EMaxC= 1.00D-01 BMatC= 1.02D-01 BMatP= 2.89D-01
 IDIUse=3 WtCom= 9.74D-01 WtEn= 2.64D-02
 EnCoef did     5 forward-backward iterations
 Coeff-Com: -0.569D-01 0.774D-01 0.155D-01 0.685D-02-0.518D-02 0.211D+00
 Coeff-Com:  0.391D+00 0.360D+00
 Coeff-En:   0.000D+00 0.000D+00 0.000D+00 0.000D+00 0.000D+00 0.220D-01
 Coeff-En:   0.260D+00 0.718D+00
 Coeff:     -0.554D-01 0.754D-01 0.151D-01 0.667D-02-0.504D-02 0.206D+00
 Coeff:      0.388D+00 0.370D+00
 Gap=     0.097 Goal=   None    Shift=    0.000
 RMSDP=5.49D-04 MaxDP=4.43D-02 DE=-1.82D-01 OVMax= 6.99D-02

 Cycle   9  Pass 1  IDiag  1:
 RMSU=  3.41D-04    CP:  8.61D-01  2.55D-01  6.38D-01  7.34D-02  5.98D-02
                    CP:  2.87D-01  6.99D-01  6.04D-01
 E= -30613.7842288078     Delta-E=       -0.098061534030 Rises=F Damp=F
 DIIS: error= 5.54D-04 at cycle   9 NSaved=   9.
 NSaved= 9 IEnMin= 9 EnMin= -30613.7842288078     IErMin= 9 ErrMin= 5.54D-04
 ErrMax= 5.54D-04  0.00D+00 EMaxC= 1.00D-01 BMatC= 4.72D-03 BMatP= 1.02D-01
 IDIUse=3 WtCom= 9.94D-01 WtEn= 5.54D-03
 Coeff-Com: -0.300D-01 0.406D-01 0.130D-02 0.261D-02-0.275D-02 0.822D-01
 Coeff-Com:  0.126D+00 0.194D+00 0.585D+00
 Coeff-En:   0.000D+00 0.000D+00 0.000D+00 0.000D+00 0.000D+00 0.000D+00
 Coeff-En:   0.000D+00 0.185D-02 0.998D+00
 Coeff:     -0.298D-01 0.403D-01 0.130D-02 0.260D-02-0.274D-02 0.817D-01
 Coeff:      0.126D+00 0.193D+00 0.588D+00
 Gap=     0.092 Goal=   None    Shift=    0.000
 RMSDP=1.76D-04 MaxDP=4.87D-02 DE=-9.81D-02 OVMax= 1.76D-02

 Error on total polarization charges =  0.02566
 SCF Done:  E(RPBE-PBE) =  -30613.7842288     A.U. after    9 cycles
            NFock=  9  Conv=0.18D-03     -V/T= 2.0142
 KE= 3.018566224158D+04 PE=-1.031222403934D+05 EE= 2.701084876895D+04
 Leave Link  502 at Fri Dec 13 01:51:41 2019, MaxMem=  4026531840 cpu:     63426.0
 (Enter /scr/programs/g09/l801.exe)
 Range of M.O.s used for correlation:     1  1975
 NBasis=  1975 NAE=   270 NBE=   270 NFC=     0 NFV=     0
 NROrb=   1975 NOA=   270 NOB=   270 NVA=  1705 NVB=  1705

 **** Warning!!: The largest alpha MO coefficient is  0.66161733D+02


 **** Warning!!: The smallest alpha delta epsilon is  0.91906617D-01

 Leave Link  801 at Fri Dec 13 01:51:42 2019, MaxMem=  4026531840 cpu:         4.0
 (Enter /scr/programs/g09/l1002.exe)
 Minotr:  Closed shell wavefunction.
 NEqPCM:  Using equilibrium solvation (IEInf=0, Eps=   8.9300, EpsInf=   2.0283)
          Direct CPHF calculation.
          Differentiating once with respect to magnetic field using GIAOs.
          Electric field/nuclear overlap derivatives assumed to be zero.
          Requested convergence is 1.0D-08 RMS, and 1.0D-07 maximum.
          Secondary convergence is 1.0D-12 RMS, and 1.0D-12 maximum.
          NewPWx=T KeepS1=F KeepF1=F KeepIn=T MapXYZ=F SortEE=F KeepMc=T.
          MDV=    4026529077 using IRadAn=       2.
 Defaulting to unpruned grid for atomic number  78.
 Defaulting to unpruned grid for atomic number  50.
 Generate precomputed XC quadrature information.
          Solving linear equations simultaneously, MaxMat=      72.
 FoFJK:  IHMeth= 1 ICntrl=    6127 DoSepK=F KAlg= 0 I1Cent=   0 FoldK=F
 IRaf=         1 NMat=   1 IRICut=       1 DoRegI=T DoRafI=F ISym2E= 0.
 Defaulting to unpruned grid for atomic number  78.
 Defaulting to unpruned grid for atomic number  78.
 Defaulting to unpruned grid for atomic number  78.
 Defaulting to unpruned grid for atomic number  78.
 Defaulting to unpruned grid for atomic number  78.
 Defaulting to unpruned grid for atomic number  78.
 Defaulting to unpruned grid for atomic number  78.
 Defaulting to unpruned grid for atomic number  78.
 Defaulting to unpruned grid for atomic number  78.
 Defaulting to unpruned grid for atomic number  78.
 Defaulting to unpruned grid for atomic number  78.
 Defaulting to unpruned grid for atomic number  78.
 Defaulting to unpruned grid for atomic number  78.
 Defaulting to unpruned grid for atomic number  78.
 Defaulting to unpruned grid for atomic number  78.
 Defaulting to unpruned grid for atomic number  78.
 Defaulting to unpruned grid for atomic number  78.
 Defaulting to unpruned grid for atomic number  78.
 Defaulting to unpruned grid for atomic number  78.
 Defaulting to unpruned grid for atomic number  78.
 Defaulting to unpruned grid for atomic number  78.
 Defaulting to unpruned grid for atomic number  78.
 Defaulting to unpruned grid for atomic number  78.
 Defaulting to unpruned grid for atomic number  78.
          There are     3 degrees of freedom in the 1st order CPHF.  IDoFFX=0 NUNeed=     3.
      3 vectors produced by pass  0 Test12= 1.53D-11 3.33D-08 XBig12= 5.34D+03 4.44D+00.
 AX will form     3 AO Fock derivatives at one time.
 InvSVY:  IOpt=1 It=  1 EMax= 0.00D+00
 Solved reduced A of dimension     3 with     3 vectors.
 Calculating GIAO nuclear magnetic shielding tensors.
 SCF GIAO Magnetic shielding tensor (ppm):
      1  Pt   Isotropic =  3248.0047   Anisotropy =  1942.5929
   XX=  3453.3297   YX=   -59.7380   ZX=  -217.9891
   XY=   254.3416   YY=  4525.5814   ZY=   144.7989
   XZ=  -164.4384   YZ=   200.1101   ZZ=  1765.1030
   Eigenvalues:  1731.8191  3469.1283  4543.0666
      2  P    Isotropic =   288.9534   Anisotropy =    55.3622
   XX=   324.3533   YX=    -1.6961   ZX=    -8.5768
   XY=    13.2071   YY=   271.0172   ZY=    -4.0420
   XZ=    -1.9084   YZ=   -24.8963   ZZ=   271.4896
   Eigenvalues:   256.7795   284.2191   325.8615
      3  P    Isotropic =   239.2566   Anisotropy =   138.7523
   XX=   165.6974   YX=   -81.4524   ZX=    10.9326
   XY=   -36.7052   YY=   307.9695   ZY=    15.1965
   XZ=    40.0329   YZ=    33.3989   ZZ=   244.1029
   Eigenvalues:   134.7770   251.2347   331.7581
      4  C    Isotropic =    35.0512   Anisotropy =   115.0028
   XX=    38.0441   YX=   -42.6833   ZX=     7.6952
   XY=   -39.8359   YY=    69.5386   ZY=    43.2588
   XZ=   -20.5759   YZ=    42.6228   ZZ=    -2.4289
   Eigenvalues:   -25.2089    18.6428   111.7198
      5  C    Isotropic =    70.6904   Anisotropy =   240.9437
   XX=    10.2476   YX=   -61.8978   ZX=   -74.8632
   XY=   -74.3985   YY=   171.3396   ZY=    58.9583
   XZ=   -58.8659   YZ=    67.6143   ZZ=    30.4842
   Eigenvalues:   -47.9513    28.7030   231.3196
      6  C    Isotropic =    20.7561   Anisotropy =   196.5318
   XX=   -58.0689   YX=   -91.2148   ZX=   -26.8148
   XY=   -87.1401   YY=    90.4375   ZY=    43.5059
   XZ=   -27.9582   YZ=    38.5422   ZZ=    29.8998
   Eigenvalues:  -100.3147    10.8057   151.7773
      7  C    Isotropic =    18.5179   Anisotropy =   162.8320
   XX=   -57.5329   YX=   -86.9808   ZX=     8.3984
   XY=   -67.5915   YY=    80.7516   ZY=    30.3613
   XZ=    27.7781   YZ=    56.8461   ZZ=    32.3351
   Eigenvalues:  -101.2374    29.7186   127.0726
      8  H    Isotropic =    22.3172   Anisotropy =    15.1916
   XX=    25.9918   YX=     8.6525   ZX=    -6.4160
   XY=     2.8959   YY=    19.2815   ZY=    -3.3222
   XZ=    -4.2112   YZ=    -1.4670   ZZ=    21.6784
   Eigenvalues:    15.8589    18.6479    32.4449
      9  C    Isotropic =     9.4240   Anisotropy =   138.3323
   XX=   -13.3289   YX=   -28.6201   ZX=   -78.5114
   XY=   -23.9305   YY=    78.6538   ZY=    23.6169
   XZ=   -68.4042   YZ=    21.7721   ZZ=   -37.0530
   Eigenvalues:   -99.6006    26.2271   101.6455
     10  H    Isotropic =    26.0157   Anisotropy =    11.7017
   XX=    19.9038   YX=    -1.0038   ZX=    -6.5101
   XY=    -4.1711   YY=    27.0189   ZY=    -1.1262
   XZ=    -5.5257   YZ=     0.3917   ZZ=    31.1244
   Eigenvalues:    16.6717    27.5586    33.8169
     11  C    Isotropic =    61.9647   Anisotropy =   357.2018
   XX=    53.2742   YX=  -109.5649   ZX=    -6.8155
   XY=  -107.2663   YY=   195.7075   ZY=   137.5101
   XZ=   -11.2133   YZ=   141.6237   ZZ=   -63.0878
   Eigenvalues:  -131.8253    17.6201   300.0992
     12  H    Isotropic =    16.2793   Anisotropy =    15.2209
   XX=    20.0838   YX=     9.0996   ZX=     1.5509
   XY=     8.4048   YY=     5.5403   ZY=    -7.7056
   XZ=     2.9625   YZ=    -7.7376   ZZ=    23.2137
   Eigenvalues:    -1.1651    23.5764    26.4266
     13  H    Isotropic =    21.9000   Anisotropy =    10.7268
   XX=    21.9258   YX=     4.8494   ZX=    -2.4572
   XY=     3.8976   YY=    19.4044   ZY=    -4.4048
   XZ=    -2.1247   YZ=    -3.2643   ZZ=    24.3698
   Eigenvalues:    15.6996    20.9492    29.0512
     14  H    Isotropic =    15.0077   Anisotropy =    17.5528
   XX=    21.5460   YX=    10.7651   ZX=     3.7731
   XY=    11.1874   YY=     3.3296   ZY=    -9.2211
   XZ=     3.8250   YZ=    -7.7782   ZZ=    20.1475
   Eigenvalues:    -5.2387    23.5521    26.7096
     15  C    Isotropic =    51.7443   Anisotropy =    78.8639
   XX=   101.5381   YX=   -61.6898   ZX=   -59.0971
   XY=    32.3991   YY=    21.2727   ZY=    47.2092
   XZ=    60.7238   YZ=     2.6666   ZZ=    32.4222
   Eigenvalues:    -0.1272    51.0399   104.3203
     16  C    Isotropic =    50.2600   Anisotropy =   174.7621
   XX=   138.0206   YX=   -81.2600   ZX=    23.3435
   XY=   -58.0465   YY=    -2.0401   ZY=    19.5943
   XZ=     3.3750   YZ=    50.1387   ZZ=    14.7995
   Eigenvalues:   -51.7257    35.7376   166.7681
     17  C    Isotropic =    66.5007   Anisotropy =   203.5851
   XX=   184.7686   YX=   -49.8100   ZX=   -19.8141
   XY=   -56.1519   YY=    16.8463   ZY=    62.0495
   XZ=    -1.2185   YZ=    13.6076   ZZ=    -2.1129
   Eigenvalues:   -34.7270    32.0050   202.2241
     18  C    Isotropic =     7.1728   Anisotropy =   162.6261
   XX=   115.2284   YX=   -19.8508   ZX=    36.2416
   XY=     8.7920   YY=     6.1034   ZY=     2.7751
   XZ=   -25.4336   YZ=    46.4252   ZZ=   -99.8133
   Eigenvalues:  -105.4379    11.3662   115.5902
     19  H    Isotropic =    24.8942   Anisotropy =     9.1193
   XX=    23.1337   YX=     1.1866   ZX=     2.7537
   XY=    -6.9712   YY=    23.5766   ZY=     2.0615
   XZ=     6.6547   YZ=    -0.7180   ZZ=    27.9725
   Eigenvalues:    18.6325    25.0764    30.9738
     20  C    Isotropic =    30.8806   Anisotropy =   202.8484
   XX=   138.8514   YX=   -59.2664   ZX=     5.0397
   XY=   -96.1478   YY=   -74.3505   ZY=     9.7857
   XZ=    20.2700   YZ=   -37.7460   ZZ=    28.1410
   Eigenvalues:  -100.3558    26.8848   166.1129
     21  H    Isotropic =    23.4564   Anisotropy =    14.2099
   XX=    19.6111   YX=     3.5384   ZX=    -0.9949
   XY=    10.4598   YY=    28.2379   ZY=     4.8635
   XZ=    -2.9910   YZ=     3.6339   ZZ=    22.5201
   Eigenvalues:    13.9274    23.5120    32.9296
     22  C    Isotropic =    74.1048   Anisotropy =   400.4603
   XX=   269.7802   YX=  -121.2532   ZX=   -70.9253
   XY=  -150.8389   YY=    14.9964   ZY=   -43.5426
   XZ=  -116.6898   YZ=   -41.5080   ZZ=   -62.4622
   Eigenvalues:  -136.0452    17.2813   341.0783
     23  H    Isotropic =    17.9721   Anisotropy =    15.7274
   XX=     5.1106   YX=     5.7074   ZX=     2.3883
   XY=     4.6981   YY=    25.2937   ZY=     2.0884
   XZ=    13.0039   YZ=    -1.1252   ZZ=    23.5119
   Eigenvalues:     1.3745    24.0846    28.4570
     24  H    Isotropic =    15.6835   Anisotropy =    18.3819
   XX=     1.0475   YX=     6.5218   ZX=     1.2026
   XY=    18.0774   YY=    20.3025   ZY=     1.0255
   XZ=     4.9026   YZ=     0.0812   ZZ=    25.7006
   Eigenvalues:    -5.1481    24.2606    27.9381
     25  H    Isotropic =    13.0000   Anisotropy =    20.7861
   XX=    -6.5817   YX=     9.3838   ZX=     1.9183
   XY=    17.6318   YY=    21.3983   ZY=    -1.5837
   XZ=    10.6454   YZ=    -3.6160   ZZ=    24.1834
   Eigenvalues:   -13.2725    25.4151    26.8574
     26  C    Isotropic =    75.2384   Anisotropy =   128.3665
   XX=    81.7974   YX=    98.9718   ZX=     9.2595
   XY=     7.6571   YY=   123.3469   ZY=     7.5977
   XZ=    -1.0975   YZ=    15.8570   ZZ=    20.5708
   Eigenvalues:    19.1468    45.7523   160.8160
     27  C    Isotropic =    70.0549   Anisotropy =   183.0142
   XX=    85.4455   YX=    85.0832   ZX=     2.4958
   XY=    68.7858   YY=   136.5218   ZY=   -20.0575
   XZ=   -14.6607   YZ=    24.0739   ZZ=   -11.8025
   Eigenvalues:   -12.6960    30.7963   192.0644
     28  C    Isotropic =    86.5621   Anisotropy =   215.7655
   XX=   104.3597   YX=    92.8489   ZX=    26.1072
   XY=    93.8852   YY=   154.2728   ZY=    50.2968
   XZ=    23.1804   YZ=    -7.6719   ZZ=     1.0538
   Eigenvalues:    -4.5243    33.8048   230.4058
     29  C    Isotropic =    59.6042   Anisotropy =   148.6820
   XX=    76.5278   YX=    75.1715   ZX=    43.7848
   XY=    57.9941   YY=   101.1469   ZY=    -6.0691
   XZ=    18.1078   YZ=     2.0578   ZZ=     1.1378
   Eigenvalues:   -17.1860    37.2731   158.7255
     30  H    Isotropic =    25.8586   Anisotropy =    14.2572
   XX=    28.8157   YX=    -4.0262   ZX=    -4.4743
   XY=    -5.2885   YY=    26.3835   ZY=     1.7096
   XZ=    -6.0646   YZ=     4.8746   ZZ=    22.3766
   Eigenvalues:    19.3420    22.8703    35.3634
     31  C    Isotropic =    77.5605   Anisotropy =   183.0784
   XX=    97.7053   YX=    92.1509   ZX=   -25.2341
   XY=    74.2509   YY=   130.7113   ZY=    28.6241
   XZ=    -3.7011   YZ=    22.4311   ZZ=     4.2649
   Eigenvalues:   -13.6704    46.7392   199.6128
     32  H    Isotropic =    24.6765   Anisotropy =     9.0524
   XX=    27.9924   YX=    -3.2213   ZX=     2.3684
   XY=    -3.4715   YY=    23.9097   ZY=     0.6286
   XZ=     1.3770   YZ=    -4.8669   ZZ=    22.1274
   Eigenvalues:    20.6990    22.6191    30.7114
     33  C    Isotropic =    62.2580   Anisotropy =   135.4372
   XX=    31.6401   YX=   112.2131   ZX=     5.3042
   XY=    14.7789   YY=   118.6826   ZY=     1.3189
   XZ=     7.8473   YZ=     7.3170   ZZ=    36.4514
   Eigenvalues:    -2.1957    36.4202   152.5495
     34  H    Isotropic =    23.8677   Anisotropy =     9.0206
   XX=    27.0644   YX=    -4.0142   ZX=    -0.2125
   XY=    -5.5103   YY=    21.5202   ZY=    -0.1979
   XZ=    -1.4204   YZ=     0.3054   ZZ=    23.0184
   Eigenvalues:    18.7512    22.9705    29.8814
     35  H    Isotropic =    25.1772   Anisotropy =     8.3066
   XX=    29.1558   YX=    -2.9905   ZX=    -0.0527
   XY=    -3.4132   YY=    23.9341   ZY=     1.2143
   XZ=    -1.2551   YZ=    -1.3351   ZZ=    22.4417
   Eigenvalues:    22.0740    22.7427    30.7150
     36  H    Isotropic =    24.6585   Anisotropy =     3.8918
   XX=    25.9065   YX=    -2.1637   ZX=    -0.4635
   XY=    -2.0896   YY=    22.9267   ZY=     0.4443
   XZ=    -1.2458   YZ=    -0.6806   ZZ=    25.1423
   Eigenvalues:    21.7445    24.9780    27.2530
     37  C    Isotropic =    38.9731   Anisotropy =   293.7913
   XX=    55.0105   YX=  -219.8257   ZX=    -2.1467
   XY=  -131.8120   YY=    62.2335   ZY=    -9.5930
   XZ=     2.7262   YZ=   -15.4431   ZZ=    -0.3248
   Eigenvalues:  -117.8577    -0.0570   234.8339
     38  C    Isotropic =    51.4934   Anisotropy =   186.7088
   XX=    60.7829   YX=   -68.7901   ZX=    71.2766
   XY=   -89.9870   YY=   111.1043   ZY=    20.0785
   XZ=    55.8287   YZ=   -12.6197   ZZ=   -17.4069
   Eigenvalues:   -64.8615    43.3758   175.9660
     39  C    Isotropic =    13.1559   Anisotropy =   121.9637
   XX=    34.1421   YX=   -43.6236   ZX=   -56.7758
   XY=   -55.4396   YY=    50.8931   ZY=   -52.6479
   XZ=   -16.4185   YZ=   -44.4305   ZZ=   -45.5676
   Eigenvalues:   -89.5220    34.5246    94.4650
     40  C    Isotropic =   122.8152   Anisotropy =   275.6952
   XX=   178.9109   YX=  -135.5538   ZX=     0.5626
   XY=  -119.5847   YY=   177.3986   ZY=   -34.3157
   XZ=    -6.9292   YZ=   -17.7743   ZZ=    12.1360
   Eigenvalues:     2.3789    59.4547   306.6120
     41  H    Isotropic =    25.2673   Anisotropy =    11.6820
   XX=    27.5785   YX=     1.3473   ZX=     4.1962
   XY=     7.2846   YY=    26.1617   ZY=     3.0534
   XZ=     5.4139   YZ=    -0.8959   ZZ=    22.0618
   Eigenvalues:    19.0072    23.7394    33.0554
     42  C    Isotropic =    97.4932   Anisotropy =   260.4658
   XX=   157.4476   YX=  -113.0556   ZX=    30.3911
   XY=  -105.5076   YY=   158.7676   ZY=   -14.8000
   XZ=    48.3406   YZ=    -0.2959   ZZ=   -23.7358
   Eigenvalues:   -33.5751    54.9175   271.1370
     43  H    Isotropic =    24.7891   Anisotropy =    11.3506
   XX=    29.7784   YX=    -1.2829   ZX=    -2.8493
   XY=     6.2229   YY=    24.9341   ZY=    -5.5496
   XZ=    -3.4703   YZ=    -1.7562   ZZ=    19.6549
   Eigenvalues:    17.5242    24.4871    32.3562
     44  C    Isotropic =    57.7841   Anisotropy =    85.0267
   XX=    35.2664   YX=   -22.4350   ZX=    20.5824
   XY=   -62.0361   YY=    86.3621   ZY=   -15.2452
   XZ=    26.4609   YZ=     5.0411   ZZ=    51.7240
   Eigenvalues:     4.2718    54.6119   114.4686
     45  H    Isotropic =    30.7550   Anisotropy =    13.0721
   XX=    34.7314   YX=    -6.4123   ZX=     0.8760
   XY=    -2.6239   YY=    33.7718   ZY=    -0.7335
   XZ=     3.3127   YZ=    -4.3378   ZZ=    23.7619
   Eigenvalues:    23.0544    29.7409    39.4697
     46  H    Isotropic =    28.4655   Anisotropy =     7.8962
   XX=    31.8368   YX=    -4.0718   ZX=     1.6573
   XY=    -0.3423   YY=    31.1477   ZY=    -0.7221
   XZ=    -0.9003   YZ=     0.9905   ZZ=    22.4120
   Eigenvalues:    22.3908    29.2760    33.7296
     47  H    Isotropic =    33.9528   Anisotropy =    24.7789
   XX=    38.4452   YX=   -16.0329   ZX=    -0.0520
   XY=    -8.6522   YY=    37.7340   ZY=     0.4214
   XZ=     1.4034   YZ=    -1.6956   ZZ=    25.6791
   Eigenvalues:    25.6424    25.7439    50.4720
     48  C    Isotropic =    28.2372   Anisotropy =   241.0951
   XX=    76.1668   YX=   124.2414   ZX=    62.9879
   XY=    72.4867   YY=   100.6582   ZY=   -13.3596
   XZ=    44.7797   YZ=   -29.7429   ZZ=   -92.1133
   Eigenvalues:  -120.5451    16.2895   188.9673
     49  C    Isotropic =    28.5978   Anisotropy =   160.2075
   XX=    62.3834   YX=    53.1270   ZX=     9.2929
   XY=    70.4808   YY=    71.2161   ZY=    48.0100
   XZ=   -28.2681   YZ=    61.0254   ZZ=   -47.8062
   Eigenvalues:   -76.9978    27.3883   135.4028
     50  C    Isotropic =    28.9892   Anisotropy =   177.1983
   XX=    15.2290   YX=   110.6926   ZX=    26.6761
   XY=   115.2479   YY=    40.8959   ZY=    18.9177
   XZ=    22.2035   YZ=     4.2527   ZZ=    30.8429
   Eigenvalues:   -86.5982    26.4445   147.1214
     51  C    Isotropic =    59.3776   Anisotropy =   214.9146
   XX=    52.5433   YX=   128.2094   ZX=    18.1139
   XY=   133.1057   YY=    84.9584   ZY=    15.6037
   XZ=     7.6490   YZ=    12.5251   ZZ=    40.6313
   Eigenvalues:   -62.9092    38.3881   202.6540
     52  H    Isotropic =    25.1218   Anisotropy =    10.8228
   XX=    25.5674   YX=    -1.3587   ZX=    -5.6661
   XY=    -2.5242   YY=    23.9032   ZY=     1.5016
   XZ=    -5.4265   YZ=     3.0506   ZZ=    25.8947
   Eigenvalues:    20.1697    22.8586    32.3370
     53  C    Isotropic =    84.4928   Anisotropy =   247.9839
   XX=   111.3691   YX=   117.5584   ZX=   -21.6206
   XY=   115.1642   YY=   150.2017   ZY=    44.6558
   XZ=   -22.7229   YZ=    35.5782   ZZ=    -8.0924
   Eigenvalues:   -42.3076    45.9706   249.8154
     54  H    Isotropic =    23.4319   Anisotropy =    13.0267
   XX=    19.0912   YX=    -0.4272   ZX=    -4.1340
   XY=     1.7002   YY=    20.4603   ZY=     2.8290
   XZ=    -2.9692   YZ=     1.8506   ZZ=    30.7443
   Eigenvalues:    17.5084    20.6710    32.1164
     55  C    Isotropic =    73.7204   Anisotropy =   229.6549
   XX=   103.7618   YX=   104.0872   ZX=    40.1625
   XY=   106.3781   YY=   134.2353   ZY=   -22.0472
   XZ=    41.3182   YZ=     1.3161   ZZ=   -16.8357
   Eigenvalues:   -43.3670    37.7046   226.8237
     56  H    Isotropic =    24.6069   Anisotropy =     6.0518
   XX=    23.2395   YX=    -0.6526   ZX=    -0.3786
   XY=    -1.5792   YY=    22.5184   ZY=     1.9428
   XZ=    -0.7233   YZ=     1.3381   ZZ=    28.0630
   Eigenvalues:    21.5313    23.6481    28.6415
     57  H    Isotropic =    25.5630   Anisotropy =     7.1159
   XX=    25.0141   YX=    -0.5802   ZX=    -3.2225
   XY=     0.4244   YY=    24.9291   ZY=     3.6637
   XZ=    -3.3876   YZ=     1.9138   ZZ=    26.7457
   Eigenvalues:    21.4943    24.8877    30.3069
     58  H    Isotropic =    25.8778   Anisotropy =     1.7438
   XX=    25.9558   YX=    -0.3882   ZX=     0.6347
   XY=    -0.6450   YY=    26.5734   ZY=     1.7227
   XZ=    -0.1986   YZ=    -0.2219   ZZ=    25.1043
   Eigenvalues:    24.6578    25.9353    27.0404
     59  C    Isotropic =   -15.1217   Anisotropy =   200.9226
   XX=    54.9478   YX=    80.5409   ZX=  -106.1510
   XY=    40.3635   YY=    -2.7612   ZY=    29.8242
   XZ=   -94.9520   YZ=    38.1724   ZZ=   -97.5516
   Eigenvalues:  -168.0780     3.8862   118.8268
     60  C    Isotropic =    -6.1064   Anisotropy =   136.8283
   XX=    70.5985   YX=   -34.1675   ZX=   -56.3607
   XY=     6.2962   YY=   -28.2526   ZY=   -59.1964
   XZ=   -34.3259   YZ=   -68.4679   ZZ=   -60.6650
   Eigenvalues:  -120.7047    17.2731    85.1125
     61  C    Isotropic =   -10.4583   Anisotropy =   121.1588
   XX=    42.8493   YX=    73.4650   ZX=   -13.0292
   XY=    52.6772   YY=  -104.3091   ZY=   -13.5822
   XZ=   -13.7055   YZ=    11.5905   ZZ=    30.0847
   Eigenvalues:  -127.7289    26.0397    70.3142
     62  C    Isotropic =    67.0348   Anisotropy =   271.8539
   XX=   207.3140   YX=    89.3301   ZX=   -53.2150
   XY=    75.4385   YY=   -61.6644   ZY=   -10.9491
   XZ=   -52.6026   YZ=   -44.1591   ZZ=    55.4548
   Eigenvalues:   -86.0236    38.8573   248.2707
     63  H    Isotropic =    24.5937   Anisotropy =    10.4927
   XX=    23.9059   YX=    -0.7518   ZX=     0.0805
   XY=    -4.9289   YY=    25.3597   ZY=    -5.1817
   XZ=     3.1052   YZ=    -5.4596   ZZ=    24.5154
   Eigenvalues:    19.4382    22.7540    31.5888
     64  C    Isotropic =    66.6141   Anisotropy =   240.7942
   XX=   199.7629   YX=    31.5257   ZX=   -59.4259
   XY=    37.7929   YY=     3.2639   ZY=   -85.3015
   XZ=   -54.0832   YZ=   -55.8628   ZZ=    -3.1843
   Eigenvalues:   -71.8206    44.5194   227.1436
     65  H    Isotropic =    25.8875   Anisotropy =    14.8324
   XX=    29.6680   YX=     0.8108   ZX=     5.9965
   XY=     1.2786   YY=    17.1298   ZY=    -6.4459
   XZ=     2.9425   YZ=    -6.0908   ZZ=    30.8648
   Eigenvalues:    14.2420    27.6448    35.7758
     66  C    Isotropic =   127.0848   Anisotropy =   413.7909
   XX=   335.7374   YX=   100.1657   ZX=  -126.4841
   XY=   100.6251   YY=    39.3423   ZY=    11.0748
   XZ=  -126.6574   YZ=    -0.8461   ZZ=     6.1749
   Eigenvalues:   -55.3223    33.6313   402.9454
     67  H    Isotropic =    25.4699   Anisotropy =     3.9164
   XX=    25.6298   YX=     0.6884   ZX=     1.3724
   XY=    -0.5832   YY=    23.4058   ZY=    -0.7147
   XZ=     1.0589   YZ=    -0.7308   ZZ=    27.3740
   Eigenvalues:    23.2446    25.0843    28.0808
     68  H    Isotropic =    26.7479   Anisotropy =     4.7163
   XX=    28.8717   YX=    -0.7871   ZX=     0.0138
   XY=    -1.0141   YY=    25.6716   ZY=    -4.5575
   XZ=    -0.2486   YZ=    -3.2163   ZZ=    25.7003
   Eigenvalues:    21.7259    28.6256    29.8921
     69  H    Isotropic =    25.7484   Anisotropy =     1.6603
   XX=    26.0350   YX=     0.3188   ZX=    -1.2567
   XY=    -0.4360   YY=    26.7167   ZY=     0.0489
   XZ=    -0.8439   YZ=     0.5407   ZZ=    24.4936
[...]
 Alpha virt. eigenvalues --    1.95386   1.96002   1.96160   1.96484   1.96877
 Alpha virt. eigenvalues --    1.97157   1.97432   1.97701   1.97908   1.98148
 Alpha virt. eigenvalues --    1.98636   1.98952   1.99102   1.99663   1.99919
 Alpha virt. eigenvalues --    2.00365   2.00667   2.00900   2.01568   2.02214
 Alpha virt. eigenvalues --    2.02511   2.02654   2.03095   2.03306   2.03766
 Alpha virt. eigenvalues --    2.04201   2.04316   2.04453   2.04757   2.05427
 Alpha virt. eigenvalues --    2.05571   2.05761   2.06077   2.06168   2.06528
 Alpha virt. eigenvalues --    2.06758   2.06942   2.07243   2.07595   2.07936
 Alpha virt. eigenvalues --    2.08758   2.08980   2.09536   2.10059   2.10560
 Alpha virt. eigenvalues --    2.10631   2.10844   2.11133   2.11305   2.11493
 Alpha virt. eigenvalues --    2.12132   2.12219   2.12615   2.13324   2.13660
 Alpha virt. eigenvalues --    2.13992   2.14106   2.14899   2.15138   2.15726
 Alpha virt. eigenvalues --    2.15827   2.16307   2.16531   2.16623   2.16826
 Alpha virt. eigenvalues --    2.17173   2.17373   2.17682   2.18156   2.18625
 Alpha virt. eigenvalues --    2.18797   2.19187   2.19619   2.19958   2.20171
 Alpha virt. eigenvalues --    2.20553   2.21061   2.21110   2.21506   2.21963
 Alpha virt. eigenvalues --    2.22306   2.22409   2.23073   2.23306   2.23791
 Alpha virt. eigenvalues --    2.24036   2.24227   2.24450   2.25107   2.25234
 Alpha virt. eigenvalues --    2.26029   2.26490   2.26736   2.27413   2.27891
 Alpha virt. eigenvalues --    2.28625   2.28813   2.29378   2.29467   2.29979
 Alpha virt. eigenvalues --    2.30225   2.30600   2.30801   2.31242   2.31487
 Alpha virt. eigenvalues --    2.32095   2.32444   2.32685   2.32809   2.33025
 Alpha virt. eigenvalues --    2.33570   2.33906   2.34046   2.34381   2.34820
 Alpha virt. eigenvalues --    2.35369   2.35797   2.36116   2.36463   2.36689
 Alpha virt. eigenvalues --    2.37177   2.37290   2.37857   2.37922   2.38498
 Alpha virt. eigenvalues --    2.38983   2.39179   2.39457   2.39689   2.39832
 Alpha virt. eigenvalues --    2.40154   2.40461   2.40632   2.40713   2.41626
 Alpha virt. eigenvalues --    2.41706   2.41878   2.42258   2.42554   2.42801
 Alpha virt. eigenvalues --    2.43068   2.43465   2.43696   2.44075   2.44518
 Alpha virt. eigenvalues --    2.44754   2.45161   2.45289   2.45676   2.46389
 Alpha virt. eigenvalues --    2.47010   2.47273   2.47687   2.48366   2.48888
 Alpha virt. eigenvalues --    2.49000   2.49636   2.49883   2.50105   2.50456
 Alpha virt. eigenvalues --    2.50735   2.51436   2.51945   2.52154   2.52716
 Alpha virt. eigenvalues --    2.53175   2.53335   2.53707   2.54330   2.54799
 Alpha virt. eigenvalues --    2.54898   2.55327   2.55599   2.55808   2.56029
 Alpha virt. eigenvalues --    2.56504   2.57004   2.57863   2.58414   2.58959
 Alpha virt. eigenvalues --    2.59307   2.60124   2.60215   2.60250   2.60658
 Alpha virt. eigenvalues --    2.60920   2.61404   2.61963   2.62248   2.62706
 Alpha virt. eigenvalues --    2.63112   2.63357   2.63627   2.64082   2.65164
 Alpha virt. eigenvalues --    2.65406   2.65509   2.66250   2.66428   2.66851
 Alpha virt. eigenvalues --    2.67263   2.67382   2.68036   2.68642   2.69218
 Alpha virt. eigenvalues --    2.69701   2.69912   2.70128   2.70613   2.70780
 Alpha virt. eigenvalues --    2.71245   2.71830   2.72028   2.72644   2.72887
 Alpha virt. eigenvalues --    2.73361   2.73562   2.73817   2.73929   2.74001
 Alpha virt. eigenvalues --    2.74323   2.74935   2.75117   2.75526   2.76058
 Alpha virt. eigenvalues --    2.76316   2.76602   2.76902   2.77320   2.77630
 Alpha virt. eigenvalues --    2.78304   2.78561   2.78974   2.79178   2.81104
 Alpha virt. eigenvalues --    2.81459   2.81993   2.82365   2.83093   2.83259
 Alpha virt. eigenvalues --    2.83464   2.83849   2.84093   2.84776   2.85233
 Alpha virt. eigenvalues --    2.85621   2.86450   2.86479   2.86911   2.87655
 Alpha virt. eigenvalues --    2.87900   2.88297   2.88949   2.89398   2.90192
 Alpha virt. eigenvalues --    2.90668   2.90968   2.91310   2.92678   2.92750
 Alpha virt. eigenvalues --    2.93297   2.93463   2.94220   2.95287   2.95338
 Alpha virt. eigenvalues --    2.96109   2.96534   2.96917   2.97534   2.97729
 Alpha virt. eigenvalues --    2.98443   2.98795   2.99191   2.99285   2.99862
 Alpha virt. eigenvalues --    3.00168   3.00470   3.00850   3.01294   3.01552
 Alpha virt. eigenvalues --    3.01849   3.02213   3.02540   3.02880   3.04031
 Alpha virt. eigenvalues --    3.04541   3.05751   3.08009   3.08168   3.08455
 Alpha virt. eigenvalues --    3.09220   3.09531   3.10189   3.10725   3.11437
 Alpha virt. eigenvalues --    3.11497   3.12688   3.12958   3.13335   3.14279
 Alpha virt. eigenvalues --    3.14614   3.14940   3.15088   3.15604   3.15657
 Alpha virt. eigenvalues --    3.15851   3.16250   3.16461   3.16915   3.17350
 Alpha virt. eigenvalues --    3.17854   3.18317   3.18655   3.19810   3.21194
 Alpha virt. eigenvalues --    3.21702   3.22009   3.22758   3.22901   3.23529
 Alpha virt. eigenvalues --    3.23810   3.23968   3.24827   3.25064   3.25426
 Alpha virt. eigenvalues --    3.26026   3.26149   3.26374   3.27037   3.27857
 Alpha virt. eigenvalues --    3.27990   3.29081   3.30671   3.30899   3.33062
 Alpha virt. eigenvalues --    3.34299   3.34936   3.35665   3.36091   3.36930
 Alpha virt. eigenvalues --    3.37666   3.38855   3.39925   3.41615   3.42667
 Alpha virt. eigenvalues --    3.43324   3.45157   3.46225   3.46706   3.47774
 Alpha virt. eigenvalues --    3.48667   3.48971   3.49390   3.49773   3.51397
 Alpha virt. eigenvalues --    3.51822   3.52836   3.53689   3.53792   3.54302
 Alpha virt. eigenvalues --    3.55223   3.55700   3.62013   3.73560   3.78621
 Alpha virt. eigenvalues --    3.91837   3.99167   4.00454   4.01128   4.02982
 Alpha virt. eigenvalues --    4.05426   4.06381   4.13126   4.13905   4.15957
 Alpha virt. eigenvalues --    4.17281   4.17693   4.18835   4.19789   4.20794
 Alpha virt. eigenvalues --    4.21167   4.21538   4.23150   4.24166   4.24381
 Alpha virt. eigenvalues --    4.24816   4.27734   4.28328   4.28926   4.30477
 Alpha virt. eigenvalues --    4.31269   4.31953   4.32314   4.33532   4.34241
 Alpha virt. eigenvalues --    4.34506   4.34901   4.35313   4.35972   4.36452
 Alpha virt. eigenvalues --    4.36738   4.37385   4.38104   4.38618   4.38724
 Alpha virt. eigenvalues --    4.39850   4.40507   4.40771   4.41124   4.41693
 Alpha virt. eigenvalues --    4.42041   4.42369   4.42671   4.43871   4.44642
 Alpha virt. eigenvalues --    4.45685   4.46990   4.47274   4.47747   4.48779
 Alpha virt. eigenvalues --    4.50512   4.51263   4.52204   4.53639   4.54697
 Alpha virt. eigenvalues --    4.56920   4.57565   4.58418   4.59214   4.64200
 Alpha virt. eigenvalues --    4.71806   4.78755   4.79166   4.79886   4.80044
 Alpha virt. eigenvalues --    4.80461   4.82091   5.59635   5.84190   5.84869
 Alpha virt. eigenvalues --    5.91308   5.96610   5.99257   6.03149   6.04683
 Alpha virt. eigenvalues --    6.06900   6.07991   6.12493   6.14724   6.15662
 Alpha virt. eigenvalues --    6.21779   6.32583   6.33682   6.63436   6.64457
 Alpha virt. eigenvalues --    6.65860   6.67067   6.67314   6.68508   6.69174
 Alpha virt. eigenvalues --    6.69540   6.71432   6.71787   6.77304   6.78945
 Alpha virt. eigenvalues --    6.79738   6.80056   6.83635   6.85021   6.85577
 Alpha virt. eigenvalues --    6.86592   6.87178   6.88120   6.89499   6.90248
 Alpha virt. eigenvalues --    6.91455   6.92198   6.93179   6.93916   6.94741
 Alpha virt. eigenvalues --    6.95624   6.95735   6.96581   6.97343   6.98823
 Alpha virt. eigenvalues --    6.99112   6.99554   7.00860   7.01922   7.02275
 Alpha virt. eigenvalues --    7.04399   7.06342   7.07250   7.08150   7.09507
 Alpha virt. eigenvalues --    7.11832   7.12334   7.13094   7.14063   7.15217
 Alpha virt. eigenvalues --    7.25979   7.27256   7.28399   7.29213   7.30055
 Alpha virt. eigenvalues --    7.31278   7.77493   7.79333   7.83568   7.83983
 Alpha virt. eigenvalues --    7.84464   7.85853   8.50536   8.51081   8.51515
 Alpha virt. eigenvalues --    8.51875   8.53219   8.53554   8.55720   8.59298
 Alpha virt. eigenvalues --    8.61375   9.05869   9.99054  10.04507  10.07590
 Alpha virt. eigenvalues --   10.11169  10.25865  14.22599  14.22856  14.26543
 Alpha virt. eigenvalues --   14.34006  15.87739  16.92671  16.95986  17.04265
 Alpha virt. eigenvalues --   17.04733  17.05121  17.05734  17.06234  17.06572
 Alpha virt. eigenvalues --   17.06731  17.07850  17.08479  17.08696  17.09319
 Alpha virt. eigenvalues --   17.10487  17.10735  17.11941  17.13364  17.13759
 Alpha virt. eigenvalues --   17.14679  17.14896  17.17349  17.18813  17.19521
 Alpha virt. eigenvalues --   17.20083  17.21573  17.23650  17.25755  17.26889
 Alpha virt. eigenvalues --   17.27940  17.29719  17.31447  17.32750  17.33208
 Alpha virt. eigenvalues --   17.33638  17.34231  17.34652  17.34951  17.36296
 Alpha virt. eigenvalues --   17.36336  17.37502  17.39899  17.40478  17.42476
 Alpha virt. eigenvalues --   17.46543  20.34745  20.37438  20.39650  20.41891
 Alpha virt. eigenvalues --   20.48974  20.53256  21.12880  21.34147  21.34898
 Alpha virt. eigenvalues --   25.56867  25.77424  25.78837  26.20006  31.78936
 Alpha virt. eigenvalues --   31.79181  31.81929  31.87952  31.88256  42.99734
 Alpha virt. eigenvalues --   43.03277  43.04245  43.07538  43.16904  61.92377
 Alpha virt. eigenvalues --   61.93012  63.22534  65.29185  65.36472  82.23481
 Alpha virt. eigenvalues --   86.23090  86.40464  86.41898  89.15726  89.19503
 Alpha virt. eigenvalues --   89.29438  89.30183  89.31415  89.31454  89.32169
 Alpha virt. eigenvalues --   89.33043  89.33344  89.34435  89.34768  89.35082
 Alpha virt. eigenvalues --   89.36183  89.36576  89.37641  89.38306  89.38978
 Alpha virt. eigenvalues --   89.39878  89.40221  89.41355  89.42737  89.43661
 Alpha virt. eigenvalues --   89.44557  89.46672  89.47818  89.48897  89.51574
 Alpha virt. eigenvalues --   89.52946  89.54375  89.55832  89.58004  89.59064
 Alpha virt. eigenvalues --   89.59433  89.60358  89.61315  89.62236  89.62958
 Alpha virt. eigenvalues --   89.63383  89.63967  89.65050  89.67021  89.67664
 Alpha virt. eigenvalues --   89.68841  89.72277 112.77277 112.80208 112.80637
 Alpha virt. eigenvalues --  112.82132 112.88285 112.91197 121.90320 122.05311
 Alpha virt. eigenvalues --  122.06283 239.38495 257.34568 282.60988 282.67966
 Alpha virt. eigenvalues --  332.25651 332.26275 428.81990 428.95668 428.96469
 Alpha virt. eigenvalues --  590.26918 590.38553 590.39302 773.02098 839.76734
 Alpha virt. eigenvalues -- 1043.755411043.820842068.620172530.129555495.41974
 Alpha virt. eigenvalues -- 5634.664115634.74236******************************
          Condensed to atoms (all electrons):
 Mulliken charges:
               1
     1  Pt   0.443805
     2  P    1.151998
     3  P    0.895107
     4  C   -0.775946
     5  C    0.267191
     6  C    0.334663
     7  C    0.064423
     8  H    0.097359
     9  C   -0.201823
    10  H    0.077091
    11  C   -0.605764
    12  H    0.142014
    13  H    0.140532
    14  H    0.152839
    15  C   -0.826344
    16  C    0.646456
    17  C    0.208111
    18  C   -0.136517
    19  H    0.049155
    20  C   -0.237304
    21  H    0.099823
    22  C   -0.573014
    23  H    0.140824
    24  H    0.142580
    25  H    0.152394
    26  C   -0.913758
    27  C    0.393512
    28  C    0.177404
    29  C   -0.068013
    30  H    0.071886
    31  C   -0.061488
    32  H    0.071733
    33  C   -0.510311
    34  H    0.121714
    35  H    0.133715
    36  H    0.146213
    37  C   -0.792474
    38  C    0.123734
    39  C    0.462270
    40  C   -0.214397
    41  H    0.076408
    42  C    0.072225
    43  H    0.079270
    44  C   -0.502282
    45  H    0.137482
    46  H    0.118063
    47  H    0.145456
    48  C   -0.750815
    49  C    0.276564
    50  C    0.447045
    51  C   -0.100558
    52  H    0.050686
    53  C    0.008373
    54  H    0.055616
    55  C   -0.524243
    56  H    0.120529
    57  H    0.134615
    58  H    0.147105
    59  C   -0.860520
    60  C    0.220448
    61  C    0.591763
    62  C    0.043563
    63  H    0.082742
    64  C   -0.201606
    65  H    0.043127
    66  C   -0.581659
    67  H    0.140061
    68  H    0.131770
    69  H    0.152114
    70  Sn  -0.299429
    71  Br  -0.392462
    72  Br  -0.358945
    73  C   -0.216888
    74  H    0.095661
    75  H    0.105510
    76  C   -0.092195
    77  H    0.067768
    78  H    0.092001
    79  C   -0.250047
    80  H    0.134707
    81  H    0.120022
    82  C   -0.336205
    83  H    0.121243
    84  H    0.129273
    85  H    0.148622
    86  C   -0.175141
    87  H    0.094724
    88  H    0.073946
    89  C   -0.039340
    90  H    0.087428
    91  H    0.033743
    92  C   -0.134115
    93  H    0.096199
    94  H    0.073903
    95  C   -0.340402
    96  H    0.127931
    97  H    0.145613
    98  H    0.142134
 Sum of Mulliken charges =   0.00000
 Mulliken charges with hydrogens summed into heavy atoms:
               1
     1  Pt   0.443805
     2  P    1.151998
     3  P    0.895107
     4  C   -0.775946
     5  C    0.364550
     6  C    0.411754
     7  C    0.206437
     9  C   -0.061291
    11  C   -0.452925
    15  C   -0.826344
    16  C    0.695611
    17  C    0.307934
    18  C    0.004307
    20  C   -0.094724
    22  C   -0.420620
    26  C   -0.913758
    27  C    0.465398
    28  C    0.249137
    29  C    0.053701
    31  C    0.072226
    33  C   -0.364099
    37  C   -0.792474
    38  C    0.200142
    39  C    0.541540
    40  C   -0.076915
    42  C    0.190288
    44  C   -0.356826
    48  C   -0.750815
    49  C    0.327249
    50  C    0.502662
    51  C    0.019971
    53  C    0.142988
    55  C   -0.377137
    59  C   -0.860520
    60  C    0.303190
    61  C    0.634890
    62  C    0.183624
    64  C   -0.069835
    66  C   -0.429544
    70  Sn  -0.299429
    71  Br  -0.392462
    72  Br  -0.358945
    73  C   -0.015717
    76  C    0.067574
    79  C    0.004682
    82  C    0.062933
    86  C   -0.006471
    89  C    0.081831
    92  C    0.035987
    95  C    0.075275
 Electronic spatial extent (au):  <R**2>=          37516.2783
 Charge=              0.0000 electrons
 Dipole moment (field-independent basis, Debye):
    X=             -9.3434    Y=              7.2791    Z=             -2.9133  Tot=             12.1972
 Quadrupole moment (field-independent basis, Debye-Ang):
   XX=           -372.8567   YY=           -367.4599   ZZ=           -345.6497
   XY=             -1.8154   XZ=            -15.0745   YZ=             -8.2489
 Traceless Quadrupole moment (field-independent basis, Debye-Ang):
   XX=            -10.8679   YY=             -5.4711   ZZ=             16.3390
   XY=             -1.8154   XZ=            -15.0745   YZ=             -8.2489
 Octapole moment (field-independent basis, Debye-Ang**2):
  XXX=             65.8183  YYY=            -47.7891  ZZZ=             13.9678  XYY=            -26.0785
  XXY=            -18.2688  XXZ=            -15.6547  XZZ=            -56.9935  YZZ=            -41.8691
  YYZ=             -3.4452  XYZ=              7.9387
 Hexadecapole moment (field-independent basis, Debye-Ang**3):
 XXXX=         -25845.2006 YYYY=         -15551.5601 ZZZZ=          -8012.9460 XXXY=           -229.6581
 XXXZ=           -242.3650 YYYX=            199.7546 YYYZ=            -31.8210 ZZZX=            195.9278
 ZZZY=            -13.6884 XXYY=          -6255.0166 XXZZ=          -5520.2075 YYZZ=          -3741.8265
 XXYZ=            -53.5957 YYXZ=            122.0377 ZZXY=             45.6905
 N-N= 1.531194515401D+04 E-N=-1.031216006127D+05  KE= 3.018566224158D+04
 Calculating spin-rotation constants.
 Leave Link  601 at Fri Dec 13 03:51:23 2019, MaxMem=  4026531840 cpu:      3995.0
 (Enter /scr/programs/g09/l9999.exe)
 1\1\GINC-NEQC27\SP\RPBEPBE\Gen\C44H48Br2P2Pt1Sn1\GUEST\13-Dec-2019\0\\
 #PBEPBE/gen scf=(maxcycle=500,conver=3) NMR=GIAO Scrf=(solvent=Dichlor
 omethane)\\estrutura 99\\0,1\Pt,0,-0.136232,0.412579,0.159174\P,0,-2.6
 6555,0.894313,0.083528\P,0,-0.248261,-1.885159,0.021096\C,0,-3.076847,
 1.801964,-1.473801\C,0,-4.325096,2.43056,-1.65295\C,0,-2.156375,1.8109
 54,-2.536755\C,0,-4.627218,3.081351,-2.850751\H,0,-5.07662,2.408621,-0
 .859327\C,0,-2.46928,2.446901,-3.743602\H,0,-1.193176,1.309585,-2.4242
 11\C,0,-3.699117,3.093149,-3.899769\H,0,-5.595916,3.574781,-2.969217\H
 ,0,-1.7464,2.434289,-4.563231\H,0,-3.940087,3.598682,-4.838274\C,0,-3.
 092369,2.052933,1.473169\C,0,-2.989638,1.594844,2.80057\C,0,-3.431202,
 3.400984,1.26308\C,0,-3.278957,2.436233,3.878609\H,0,-2.6614,0.577176,
 3.0123\C,0,-3.714952,4.244477,2.342521\H,0,-3.45149,3.815589,0.255818\
 C,0,-3.65336,3.764278,3.653478\H,0,-3.200826,2.050127,4.898472\H,0,-3.
 977071,5.288488,2.151433\H,0,-3.878873,4.424356,4.495176\C,0,-4.043565
 ,-0.368196,0.120065\C,0,-4.628423,-0.792874,-1.087578\C,0,-4.517024,-0
 .933302,1.318351\C,0,-5.676051,-1.718781,-1.09186\H,0,-4.277735,-0.394
 436,-2.039726\C,0,-5.559667,-1.864048,1.311818\H,0,-4.091795,-0.647812
 ,2.277944\C,0,-6.150747,-2.254606,0.107326\H,0,-6.123099,-2.016629,-2.
 043441\H,0,-5.914248,-2.277577,2.259346\H,0,-6.976855,-2.971304,0.1048
 63\C,0,1.233186,-3.011743,-0.050173\C,0,1.705891,-3.557808,-1.253684\C
 ,0,1.852339,-3.393482,1.154116\C,0,2.762493,-4.476066,-1.251531\H,0,1.
 24726,-3.287901,-2.20378\C,0,2.907592,-4.310836,1.153423\H,0,1.497507,
 -2.996838,2.106979\C,0,3.362888,-4.858188,-0.050523\H,0,3.109573,-4.89
 525,-2.199128\H,0,3.368601,-4.601697,2.099895\H,0,4.181728,-5.583659,-
 0.05054\C,0,-1.155059,-2.324658,-1.527812\C,0,-2.238508,-3.212317,-1.6
 00005\C,0,-0.684086,-1.729913,-2.715392\C,0,-2.820299,-3.518637,-2.835
 202\H,0,-2.653292,-3.661283,-0.698244\C,0,-1.263995,-2.041709,-3.94644
 9\H,0,0.149732,-1.023995,-2.677683\C,0,-2.333137,-2.942582,-4.010743\H
 ,0,-3.666551,-4.208391,-2.872115\H,0,-0.879944,-1.576928,-4.857658\H,0
 ,-2.788635,-3.186358,-4.973266\C,0,-1.092531,-2.625035,1.488542\C,0,-1
 .445561,-3.987155,1.541323\C,0,-1.245063,-1.842551,2.644054\C,0,-1.989
 365,-4.532325,2.706671\H,0,-1.275426,-4.638961,0.682772\C,0,-1.771579,
 -2.395026,3.817484\H,0,-0.919246,-0.799564,2.625283\C,0,-2.157616,-3.7
 37356,3.846513\H,0,-2.268494,-5.588842,2.729161\H,0,-1.872702,-1.77378
 6,4.711185\H,0,-2.573788,-4.17016,4.760058\Sn,0,2.538459,0.656106,0.17
 3987\Br,0,0.011308,2.976606,0.300505\Br,0,3.507965,-0.45842,-2.024517\
 C,0,3.368802,2.675941,-0.154552\H,0,2.849458,3.057772,-1.048175\H,0,2.
 987539,3.2577,0.697647\C,0,4.884792,2.806223,-0.295623\H,0,5.38215,2.4
 61053,0.628601\H,0,5.245847,2.143251,-1.10114\C,0,5.360839,4.240951,-0
 .600586\H,0,6.455746,4.219195,-0.749468\H,0,4.93098,4.56543,-1.565854\
 C,0,5.023298,5.274767,0.476467\H,0,3.934931,5.422864,0.577432\H,0,5.40
 7877,4.963583,1.464066\H,0,5.46743,6.257512,0.240355\C,0,3.578491,-0.3
 11295,1.882002\H,0,3.823178,0.533409,2.551159\H,0,2.787341,-0.890067,2
 .381526\C,0,4.810479,-1.188304,1.633421\H,0,5.019338,-1.761332,2.55938
 1\H,0,4.5847,-1.947243,0.864094\C,0,6.086537,-0.437686,1.238051\H,0,6.
 302621,0.335875,1.998022\H,0,5.916338,0.10248,0.291598\C,0,7.302923,-1
 .352872,1.083852\H,0,7.142023,-2.101385,0.289458\H,0,8.211197,-0.78152
 8,0.823913\H,0,7.513125,-1.902121,2.019241\\Version=EM64L-G09RevD.01\S
 tate=1-A\HF=-30613.7842288\RMSD=1.765e-04\Dipole=-3.6759914,-2.8638136
 ,1.1461916\Quadrupole=-8.0800182,-4.0676453,12.1476635,1.3496743,11.20
 75447,-6.1328517\PG=C01 [X(C44H48Br2P2Pt1Sn1)]\\@


  THE LARGE PRINT GIVETH,
  AND THE SMALL PRINT TAKETH AWAY.

                     -- TOM WAITS
 Job cpu time:       2 days  7 hours  7 minutes 45.6 seconds.
 File lengths (MBytes):  RWF=   2973 Int=      0 D2E=      0 Chk=    212 Scr=      1
 Normal termination of Gaussian 09 at Fri Dec 13 03:51:25 2019.
