 Entering Gaussian System, Link 0=g09
 Input=estrutura97.com
 Output=estrutura97.log
 Initial command:
 /scr/programs/g09/l1.exe "/scr/guest/Gau-23823.inp" -scrdir="/scr/guest/"
 Entering Link 1 = /scr/programs/g09/l1.exe PID=     23824.
  
 Copyright (c) 1988,1990,1992,1993,1995,1998,2003,2009,2013,
            Gaussian, Inc.  All Rights Reserved.
  
 This is part of the Gaussian(R) 09 program.  It is based on
 the Gaussian(R) 03 system (copyright 2003, Gaussian, Inc.),
 the Gaussian(R) 98 system (copyright 1998, Gaussian, Inc.),
 the Gaussian(R) 94 system (copyright 1995, Gaussian, Inc.),
 the Gaussian 92(TM) system (copyright 1992, Gaussian, Inc.),
 the Gaussian 90(TM) system (copyright 1990, Gaussian, Inc.),
 the Gaussian 88(TM) system (copyright 1988, Gaussian, Inc.),
 the Gaussian 86(TM) system (copyright 1986, Carnegie Mellon
 University), and the Gaussian 82(TM) system (copyright 1983,
 Carnegie Mellon University). Gaussian is a federally registered
 trademark of Gaussian, Inc.
  
 This software contains proprietary and confidential information,
 including trade secrets, belonging to Gaussian, Inc.
  
 This software is provided under written license and may be
 used, copied, transmitted, or stored only in accord with that
 written license.
  
 The following legend is applicable only to US Government
 contracts under FAR:
  
                    RESTRICTED RIGHTS LEGEND
  
 Use, reproduction and disclosure by the US Government is
 subject to restrictions as set forth in subparagraphs (a)
 and (c) of the Commercial Computer Software - Restricted
 Rights clause in FAR 52.227-19.
  
 Gaussian, Inc.
 340 Quinnipiac St., Bldg. 40, Wallingford CT 06492
  
  
 ---------------------------------------------------------------
 Warning -- This program may not be used in any manner that
 competes with the business of Gaussian, Inc. or will provide
 assistance to any competitor of Gaussian, Inc.  The licensee
 of this program is prohibited from giving any competitor of
 Gaussian, Inc. access to this program.  By using this program,
 the user acknowledges that Gaussian, Inc. is engaged in the
 business of creating and licensing software in the field of
 computational chemistry and represents and warrants to the
 licensee that it is not a competitor of Gaussian, Inc. and that
 it will not use this program in any manner prohibited above.
 ---------------------------------------------------------------
  

 Cite this work as:
 Gaussian 09, Revision D.01,
 M. J. Frisch, G. W. Trucks, H. B. Schlegel, G. E. Scuseria, 
 M. A. Robb, J. R. Cheeseman, G. Scalmani, V. Barone, B. Mennucci, 
 G. A. Petersson, H. Nakatsuji, M. Caricato, X. Li, H. P. Hratchian, 
 A. F. Izmaylov, J. Bloino, G. Zheng, J. L. Sonnenberg, M. Hada, 
 M. Ehara, K. Toyota, R. Fukuda, J. Hasegawa, M. Ishida, T. Nakajima, 
 Y. Honda, O. Kitao, H. Nakai, T. Vreven, J. A. Montgomery, Jr., 
 J. E. Peralta, F. Ogliaro, M. Bearpark, J. J. Heyd, E. Brothers, 
 K. N. Kudin, V. N. Staroverov, T. Keith, R. Kobayashi, J. Normand, 
 K. Raghavachari, A. Rendell, J. C. Burant, S. S. Iyengar, J. Tomasi, 
 M. Cossi, N. Rega, J. M. Millam, M. Klene, J. E. Knox, J. B. Cross, 
 V. Bakken, C. Adamo, J. Jaramillo, R. Gomperts, R. E. Stratmann, 
 O. Yazyev, A. J. Austin, R. Cammi, C. Pomelli, J. W. Ochterski, 
 R. L. Martin, K. Morokuma, V. G. Zakrzewski, G. A. Voth, 
 P. Salvador, J. J. Dannenberg, S. Dapprich, A. D. Daniels, 
 O. Farkas, J. B. Foresman, J. V. Ortiz, J. Cioslowski, 
 and D. J. Fox, Gaussian, Inc., Wallingford CT, 2013.
 
 ******************************************
 Gaussian 09:  EM64L-G09RevD.01 24-Apr-2013
                12-Dec-2019 
 ******************************************
 %mem=30Gb
 %nproc=24
 Will use up to   24 processors via shared memory.
 ----------------------------------------------------------------------
 #PBEPBE/gen scf=(maxcycle=500,conver=3) NMR=GIAO Scrf=(solvent=Dichlor
 omethane)
 ----------------------------------------------------------------------
 1/38=1/1;
 2/12=2,17=6,18=5,40=1/2;
 3/5=7,11=2,16=1,25=1,30=1,70=2201,72=9,74=1009/1,2,8,3;
 4//1;
 5/5=2,6=3,7=500,38=5,53=9/2;
 8/6=1,10=90,11=11/1;
 10/13=100,45=16/2;
 6/7=2,8=2,9=2,10=2,28=1/1;
 99/9=1/99;
 Leave Link    1 at Thu Dec 12 20:45:43 2019, MaxMem=  4026531840 cpu:         6.1
 (Enter /scr/programs/g09/l101.exe)
 ------------
 estrutura 97
 ------------
 Symbolic Z-matrix:
 Charge =  0 Multiplicity = 1
 Pt                   -0.19728   0.29795  -0.15159 
 P                     1.98016   1.47041  -0.07907 
 P                     0.5025   -1.88749   0.07313 
 C                     2.12783   2.38952   1.51059 
 C                     3.14571   3.3476    1.6997 
 C                     1.26848   2.08625   2.57807 
 C                     3.27186   4.01013   2.92261 
 H                     3.84681   3.58054   0.89385 
 C                     1.41217   2.73556   3.80967 
 H                     0.49522   1.32657   2.45409 
 C                     2.40398   3.70543   3.98027 
 H                     4.05359   4.76698   3.05097 
 H                     0.74637   2.47834   4.63564 
 H                     2.51004   4.21952   4.93886 
 C                     1.97982   2.72675  -1.43571 
 C                     1.92138   2.27997  -2.76878 
 C                     1.94968   4.10921  -1.18932 
 C                     1.89517   3.19016  -3.82821 
 H                     1.87421   1.21349  -2.99467 
 C                     1.91795   5.01917  -2.25159 
 H                     1.92413   4.48942  -0.16756 
 C                     1.9027    4.56483  -3.57222 
 H                     1.8573    2.8197   -4.85526 
 H                     1.89628   6.09081  -2.03811 
 H                     1.88011   5.2785   -4.39933 
 C                     3.65125   0.66242  -0.17845 
 C                     4.25826   0.22169   1.01255 
 C                     4.33568   0.46827  -1.39187 
 C                     5.51607  -0.38426   0.99003 
 H                     3.75744   0.35999   1.97149 
 C                     5.59241  -0.14309  -1.41144 
 H                     3.90759   0.80617  -2.33482 
 C                     6.18791  -0.57145  -0.2219 
 H                     5.97224  -0.70759   1.92883 
 H                     6.10789  -0.27894  -2.36608 
 H                     7.1742   -1.04221  -0.23952 
 C                    -0.72459  -3.26982  -0.0483 
 C                    -0.97699  -4.16388   1.0042 
 C                    -1.37064  -3.46464  -1.28091 
 C                    -1.86804  -5.22721   0.82686 
 H                    -0.48343  -4.0407    1.96804 
 C                    -2.26119  -4.52521  -1.45282 
 H                    -1.18691  -2.7852   -2.11467 
 C                    -2.5138   -5.40962  -0.39806 
 H                    -2.05812  -5.91345   1.65688 
 H                    -2.76327  -4.65574  -2.41384 
 H                    -3.21159  -6.23999  -0.53262 
 C                     1.25271  -2.09545   1.74197 
 C                     2.57221  -2.50476   1.97463 
 C                     0.42976  -1.78397   2.84314 
 C                     3.05537  -2.61623   3.28438 
 H                     3.24231  -2.72403   1.14352 
 C                     0.91595  -1.89947   4.14672 
 H                    -0.59975  -1.45981   2.68438 
 C                     2.23151  -2.31698   4.37107 
 H                     4.08799  -2.93205   3.45043 
 H                     0.26429  -1.65879   4.99065 
 H                     2.61342  -2.40285   5.39162 
 C                     1.66994  -2.42358  -1.24979 
 C                     2.38977  -3.63028  -1.16228 
 C                     1.69825  -1.70063  -2.45344 
 C                     3.15921  -4.0711   -2.24225 
 H                     2.3401   -4.24554  -0.26177 
 C                     2.45328  -2.15444  -3.54015 
 H                     1.10025  -0.79164  -2.54815 
 C                     3.1942   -3.33381  -3.43232 
 H                     3.7234   -5.00349  -2.15783 
 H                     2.45594  -1.58419  -4.47271 
 H                     3.78844  -3.68782  -4.27863 
 Sn                   -2.81772  -0.08531  -0.13149 
 Cl                   -1.11029   2.5615   -0.31549 
 Cl                   -3.56332  -1.64897   1.6174 
 Cl                   -3.62685  -1.0037   -2.26614 
 C                    -4.37968   1.4106    0.13741 
 C                    -4.86979   1.71676   1.41634 
 C                    -4.88074   2.10759  -0.97414 
 C                    -5.83853   2.71473   1.58277 
 H                    -4.51037   1.16897   2.29235 
 C                    -5.85029   3.10239  -0.80731 
 H                    -4.52649   1.86959  -1.98097 
 C                    -6.32733   3.41119   0.47164 
 H                    -6.21418   2.94602   2.58375 
 H                    -6.23402   3.63764  -1.68119 
 H                    -7.08227   4.19095   0.60181 
 
 NAtoms=     84 NQM=       84 NQMF=       0 NMMI=      0 NMMIF=      0
                NMic=       0 NMicF=      0.
                    Isotopes and Nuclear Properties:
 (Nuclear quadrupole moments (NQMom) in fm**2, nuclear magnetic moments (NMagM)
  in nuclear magnetons)

  Atom         1           2           3           4           5           6           7           8           9          10
 IAtWgt=         195          31          31          12          12          12          12           1          12           1
 AtmWgt= 194.9648000  30.9737634  30.9737634  12.0000000  12.0000000  12.0000000  12.0000000   1.0078250  12.0000000   1.0078250
 NucSpn=           1           1           1           0           0           0           0           1           0           1
 AtZEff=   0.0000000   0.0000000   0.0000000   0.0000000   0.0000000   0.0000000   0.0000000   0.0000000   0.0000000   0.0000000
 NQMom=    0.0000000   0.0000000   0.0000000   0.0000000   0.0000000   0.0000000   0.0000000   0.0000000   0.0000000   0.0000000
 NMagM=    0.6095000   1.1316000   1.1316000   0.0000000   0.0000000   0.0000000   0.0000000   2.7928460   0.0000000   2.7928460
 AtZNuc=  78.0000000  15.0000000  15.0000000   6.0000000   6.0000000   6.0000000   6.0000000   1.0000000   6.0000000   1.0000000

  Atom        11          12          13          14          15          16          17          18          19          20
 IAtWgt=          12           1           1           1          12          12          12          12           1          12
 AtmWgt=  12.0000000   1.0078250   1.0078250   1.0078250  12.0000000  12.0000000  12.0000000  12.0000000   1.0078250  12.0000000
 NucSpn=           0           1           1           1           0           0           0           0           1           0
 AtZEff=   0.0000000   0.0000000   0.0000000   0.0000000   0.0000000   0.0000000   0.0000000   0.0000000   0.0000000   0.0000000
 NQMom=    0.0000000   0.0000000   0.0000000   0.0000000   0.0000000   0.0000000   0.0000000   0.0000000   0.0000000   0.0000000
 NMagM=    0.0000000   2.7928460   2.7928460   2.7928460   0.0000000   0.0000000   0.0000000   0.0000000   2.7928460   0.0000000
 AtZNuc=   6.0000000   1.0000000   1.0000000   1.0000000   6.0000000   6.0000000   6.0000000   6.0000000   1.0000000   6.0000000

  Atom        21          22          23          24          25          26          27          28          29          30
 IAtWgt=           1          12           1           1           1          12          12          12          12           1
 AtmWgt=   1.0078250  12.0000000   1.0078250   1.0078250   1.0078250  12.0000000  12.0000000  12.0000000  12.0000000   1.0078250
 NucSpn=           1           0           1           1           1           0           0           0           0           1
 AtZEff=   0.0000000   0.0000000   0.0000000   0.0000000   0.0000000   0.0000000   0.0000000   0.0000000   0.0000000   0.0000000
 NQMom=    0.0000000   0.0000000   0.0000000   0.0000000   0.0000000   0.0000000   0.0000000   0.0000000   0.0000000   0.0000000
 NMagM=    2.7928460   0.0000000   2.7928460   2.7928460   2.7928460   0.0000000   0.0000000   0.0000000   0.0000000   2.7928460
 AtZNuc=   1.0000000   6.0000000   1.0000000   1.0000000   1.0000000   6.0000000   6.0000000   6.0000000   6.0000000   1.0000000

  Atom        31          32          33          34          35          36          37          38          39          40
 IAtWgt=          12           1          12           1           1           1          12          12          12          12
 AtmWgt=  12.0000000   1.0078250  12.0000000   1.0078250   1.0078250   1.0078250  12.0000000  12.0000000  12.0000000  12.0000000
 NucSpn=           0           1           0           1           1           1           0           0           0           0
 AtZEff=   0.0000000   0.0000000   0.0000000   0.0000000   0.0000000   0.0000000   0.0000000   0.0000000   0.0000000   0.0000000
 NQMom=    0.0000000   0.0000000   0.0000000   0.0000000   0.0000000   0.0000000   0.0000000   0.0000000   0.0000000   0.0000000
 NMagM=    0.0000000   2.7928460   0.0000000   2.7928460   2.7928460   2.7928460   0.0000000   0.0000000   0.0000000   0.0000000
 AtZNuc=   6.0000000   1.0000000   6.0000000   1.0000000   1.0000000   1.0000000   6.0000000   6.0000000   6.0000000   6.0000000

  Atom        41          42          43          44          45          46          47          48          49          50
 IAtWgt=           1          12           1          12           1           1           1          12          12          12
 AtmWgt=   1.0078250  12.0000000   1.0078250  12.0000000   1.0078250   1.0078250   1.0078250  12.0000000  12.0000000  12.0000000
 NucSpn=           1           0           1           0           1           1           1           0           0           0
 AtZEff=   0.0000000   0.0000000   0.0000000   0.0000000   0.0000000   0.0000000   0.0000000   0.0000000   0.0000000   0.0000000
 NQMom=    0.0000000   0.0000000   0.0000000   0.0000000   0.0000000   0.0000000   0.0000000   0.0000000   0.0000000   0.0000000
 NMagM=    2.7928460   0.0000000   2.7928460   0.0000000   2.7928460   2.7928460   2.7928460   0.0000000   0.0000000   0.0000000
 AtZNuc=   1.0000000   6.0000000   1.0000000   6.0000000   1.0000000   1.0000000   1.0000000   6.0000000   6.0000000   6.0000000

  Atom        51          52          53          54          55          56          57          58          59          60
 IAtWgt=          12           1          12           1          12           1           1           1          12          12
 AtmWgt=  12.0000000   1.0078250  12.0000000   1.0078250  12.0000000   1.0078250   1.0078250   1.0078250  12.0000000  12.0000000
 NucSpn=           0           1           0           1           0           1           1           1           0           0
 AtZEff=   0.0000000   0.0000000   0.0000000   0.0000000   0.0000000   0.0000000   0.0000000   0.0000000   0.0000000   0.0000000
 NQMom=    0.0000000   0.0000000   0.0000000   0.0000000   0.0000000   0.0000000   0.0000000   0.0000000   0.0000000   0.0000000
 NMagM=    0.0000000   2.7928460   0.0000000   2.7928460   0.0000000   2.7928460   2.7928460   2.7928460   0.0000000   0.0000000
 AtZNuc=   6.0000000   1.0000000   6.0000000   1.0000000   6.0000000   1.0000000   1.0000000   1.0000000   6.0000000   6.0000000

  Atom        61          62          63          64          65          66          67          68          69          70
 IAtWgt=          12          12           1          12           1          12           1           1           1         118
 AtmWgt=  12.0000000  12.0000000   1.0078250  12.0000000   1.0078250  12.0000000   1.0078250   1.0078250   1.0078250 117.9018000
 NucSpn=           0           0           1           0           1           0           1           1           1           0
 AtZEff=   0.0000000   0.0000000   0.0000000   0.0000000   0.0000000   0.0000000   0.0000000   0.0000000   0.0000000   0.0000000
 NQMom=    0.0000000   0.0000000   0.0000000   0.0000000   0.0000000   0.0000000   0.0000000   0.0000000   0.0000000   0.0000000
 NMagM=    0.0000000   0.0000000   2.7928460   0.0000000   2.7928460   0.0000000   2.7928460   2.7928460   2.7928460   0.0000000
 AtZNuc=   6.0000000   6.0000000   1.0000000   6.0000000   1.0000000   6.0000000   1.0000000   1.0000000   1.0000000  50.0000000

  Atom        71          72          73          74          75          76          77          78          79          80
 IAtWgt=          35          35          35          12          12          12          12           1          12           1
 AtmWgt=  34.9688527  34.9688527  34.9688527  12.0000000  12.0000000  12.0000000  12.0000000   1.0078250  12.0000000   1.0078250
 NucSpn=           3           3           3           0           0           0           0           1           0           1
 AtZEff=   0.0000000   0.0000000   0.0000000   0.0000000   0.0000000   0.0000000   0.0000000   0.0000000   0.0000000   0.0000000
 NQMom=   -8.1650000  -8.1650000  -8.1650000   0.0000000   0.0000000   0.0000000   0.0000000   0.0000000   0.0000000   0.0000000
 NMagM=    0.8218740   0.8218740   0.8218740   0.0000000   0.0000000   0.0000000   0.0000000   2.7928460   0.0000000   2.7928460
 AtZNuc=  17.0000000  17.0000000  17.0000000   6.0000000   6.0000000   6.0000000   6.0000000   1.0000000   6.0000000   1.0000000

  Atom        81          82          83          84
 IAtWgt=          12           1           1           1
 AtmWgt=  12.0000000   1.0078250   1.0078250   1.0078250
 NucSpn=           0           1           1           1
 AtZEff=   0.0000000   0.0000000   0.0000000   0.0000000
 NQMom=    0.0000000   0.0000000   0.0000000   0.0000000
 NMagM=    0.0000000   2.7928460   2.7928460   2.7928460
 AtZNuc=   6.0000000   1.0000000   1.0000000   1.0000000
 Leave Link  101 at Thu Dec 12 20:45:43 2019, MaxMem=  4026531840 cpu:         5.5
 (Enter /scr/programs/g09/l202.exe)
 Stoichiometry    C42H35Cl3P2PtSn
 Framework group  C1[X(C42H35Cl3P2PtSn)]
 Deg. of freedom   246
 Full point group                 C1      NOp   1
 Largest Abelian subgroup         C1      NOp   1
 Largest concise Abelian subgroup C1      NOp   1
                         Standard orientation:                         
 ---------------------------------------------------------------------
 Center     Atomic      Atomic             Coordinates (Angstroms)
 Number     Number       Type             X           Y           Z
 ---------------------------------------------------------------------
      1         78           0        0.197284   -0.297954   -0.151594
      2         15           0       -1.980155   -1.470409   -0.079066
      3         15           0       -0.502499    1.887490    0.073125
      4          6           0       -2.127830   -2.389523    1.510592
      5          6           0       -3.145708   -3.347604    1.699697
      6          6           0       -1.268481   -2.086248    2.578068
      7          6           0       -3.271856   -4.010128    2.922610
      8          1           0       -3.846808   -3.580536    0.893850
      9          6           0       -1.412173   -2.735558    3.809668
     10          1           0       -0.495219   -1.326574    2.454089
     11          6           0       -2.403981   -3.705427    3.980274
     12          1           0       -4.053586   -4.766983    3.050974
     13          1           0       -0.746371   -2.478339    4.635635
     14          1           0       -2.510038   -4.219521    4.938863
     15          6           0       -1.979819   -2.726754   -1.435711
     16          6           0       -1.921379   -2.279974   -2.768784
     17          6           0       -1.949680   -4.109215   -1.189322
     18          6           0       -1.895169   -3.190157   -3.828205
     19          1           0       -1.874209   -1.213495   -2.994673
     20          6           0       -1.917948   -5.019165   -2.251589
     21          1           0       -1.924125   -4.489425   -0.167564
     22          6           0       -1.902700   -4.564830   -3.572217
     23          1           0       -1.857303   -2.819699   -4.855258
     24          1           0       -1.896283   -6.090807   -2.038106
     25          1           0       -1.880110   -5.278502   -4.399334
     26          6           0       -3.651249   -0.662421   -0.178448
     27          6           0       -4.258263   -0.221687    1.012547
     28          6           0       -4.335676   -0.468267   -1.391868
     29          6           0       -5.516068    0.384255    0.990031
     30          1           0       -3.757439   -0.359994    1.971493
     31          6           0       -5.592415    0.143089   -1.411436
     32          1           0       -3.907587   -0.806170   -2.334822
     33          6           0       -6.187913    0.571447   -0.221900
     34          1           0       -5.972236    0.707589    1.928825
     35          1           0       -6.107893    0.278935   -2.366083
     36          1           0       -7.174196    1.042206   -0.239516
     37          6           0        0.724589    3.269818   -0.048300
     38          6           0        0.976986    4.163881    1.004198
     39          6           0        1.370641    3.464636   -1.280907
     40          6           0        1.868036    5.227212    0.826861
     41          1           0        0.483432    4.040697    1.968042
     42          6           0        2.261186    4.525214   -1.452823
     43          1           0        1.186913    2.785203   -2.114671
     44          6           0        2.513799    5.409618   -0.398060
     45          1           0        2.058119    5.913450    1.656878
     46          1           0        2.763265    4.655739   -2.413838
     47          1           0        3.211591    6.239990   -0.532623
     48          6           0       -1.252709    2.095453    1.741970
     49          6           0       -2.572214    2.504760    1.974633
     50          6           0       -0.429756    1.783970    2.843141
     51          6           0       -3.055368    2.616231    3.284383
     52          1           0       -3.242312    2.724033    1.143524
     53          6           0       -0.915948    1.899466    4.146723
     54          1           0        0.599752    1.459807    2.684384
     55          6           0       -2.231510    2.316983    4.371070
     56          1           0       -4.087989    2.932045    3.450427
     57          1           0       -0.264291    1.658790    4.990645
     58          1           0       -2.613424    2.402849    5.391617
     59          6           0       -1.669944    2.423582   -1.249787
     60          6           0       -2.389773    3.630278   -1.162275
     61          6           0       -1.698248    1.700631   -2.453435
     62          6           0       -3.159211    4.071097   -2.242245
     63          1           0       -2.340096    4.245538   -0.261768
     64          6           0       -2.453278    2.154445   -3.540151
     65          1           0       -1.100251    0.791636   -2.548147
     66          6           0       -3.194199    3.333814   -3.432321
     67          1           0       -3.723398    5.003486   -2.157831
     68          1           0       -2.455942    1.584187   -4.472706
     69          1           0       -3.788441    3.687820   -4.278627
     70         50           0        2.817724    0.085313   -0.131488
     71         17           0        1.110292   -2.561497   -0.315491
     72         17           0        3.563320    1.648966    1.617398
     73         17           0        3.626849    1.003696   -2.266138
     74          6           0        4.379681   -1.410600    0.137409
     75          6           0        4.869786   -1.716755    1.416338
     76          6           0        4.880738   -2.107594   -0.974136
     77          6           0        5.838528   -2.714730    1.582770
     78          1           0        4.510369   -1.168970    2.292347
     79          6           0        5.850291   -3.102386   -0.807311
     80          1           0        4.526485   -1.869593   -1.980970
     81          6           0        6.327326   -3.411194    0.471639
     82          1           0        6.214181   -2.946022    2.583751
     83          1           0        6.234023   -3.637642   -1.681193
     84          1           0        7.082269   -4.190954    0.601812
 ---------------------------------------------------------------------
 Rotational constants (GHZ):      0.0579995      0.0452673      0.0371266
 Leave Link  202 at Thu Dec 12 20:45:44 2019, MaxMem=  4026531840 cpu:         3.4
 (Enter /scr/programs/g09/l301.exe)
 General basis read from cards:  (5D, 7F)
 Centers:       8     10     12     13     14     19     21     23     24     25
 Centers:      30     32     34     35     36     41     43     45     46     47
 Centers:      52     54     56     57     58     63     65     67     68     69
 Centers:      78     80     82     83     84
 S 5 1.00
     Exponent=  2.8295215633D+02 Coefficients=  4.3000000000D-04
     Exponent=  8.7062201949D+01 Coefficients=  5.1000000000D-04
     Exponent=  2.6788369830D+01 Coefficients=  6.1600000000D-03
     Exponent=  8.2425753324D+00 Coefficients=  1.3030000000D-02
     Exponent=  2.5361770254D+00 Coefficients=  9.9490000000D-02
 S 1 1.00
     Exponent=  7.8036216165D-01 Coefficients=  1.0000000000D+00
 S 1 1.00
     Exponent=  2.4011143435D-01 Coefficients=  1.0000000000D+00
 P 1 1.00
     Exponent=  8.8150000000D-01 Coefficients=  1.0000000000D+00
 P 1 1.00
     Exponent=  1.7989200000D-01 Coefficients=  1.0000000000D+00
 ****
 Centers:       4      5      6      7      9     11     15     16     17     18
 Centers:      20     22     26     27     28     29     31     33     37     38
 Centers:      39     40     42     44     48     49     50     51     53     55
 Centers:      59     60     61     62     64     66     74     75     76     77
 Centers:      79     81
 S 6 1.00
     Exponent=  8.8461235339D+03 Coefficients=  5.3000000000D-04
     Exponent=  2.9487078446D+03 Coefficients=  7.7000000000D-04
     Exponent=  9.8290261488D+02 Coefficients=  4.0500000000D-03
     Exponent=  3.2763420496D+02 Coefficients=  1.4030000000D-02
     Exponent=  1.0921140165D+02 Coefficients=  5.3450000000D-02
     Exponent=  3.6403800551D+01 Coefficients=  1.7027000000D-01
 S 1 1.00
     Exponent=  1.2134600184D+01 Coefficients=  1.0000000000D+00
 S 1 1.00
     Exponent=  4.0448667279D+00 Coefficients=  1.0000000000D+00
 S 1 1.00
     Exponent=  1.3482889093D+00 Coefficients=  1.0000000000D+00
 S 1 1.00
     Exponent=  4.4942963643D-01 Coefficients=  1.0000000000D+00
 S 1 1.00
     Exponent=  1.4980987881D-01 Coefficients=  1.0000000000D+00
 P 4 1.00
     Exponent=  3.7294093393D+01 Coefficients=  3.9600000000D-03
     Exponent=  1.1475105659D+01 Coefficients=  1.8890000000D-02
     Exponent=  3.5308017414D+00 Coefficients=  9.4610000000D-02
     Exponent=  1.0864005358D+00 Coefficients=  3.1889000000D-01
 P 1 1.00
     Exponent=  3.3427708794D-01 Coefficients=  1.0000000000D+00
 P 1 1.00
     Exponent=  1.0285448860D-01 Coefficients=  1.0000000000D+00
 D 1 1.00
     Exponent=  4.7750000000D-01 Coefficients=  1.0000000000D+00
 D 1 1.00
     Exponent=  1.1998000000D-01 Coefficients=  1.0000000000D+00
 ****
 Centers:       2      3
 S 7 1.00
     Exponent=  5.9538004301D+04 Coefficients=  9.5000000000D-04
     Exponent=  2.1650183382D+04 Coefficients=  6.1000000000D-04
     Exponent=  7.8727939572D+03 Coefficients=  3.7500000000D-03
     Exponent=  2.8628341663D+03 Coefficients=  9.6300000000D-03
     Exponent=  1.0410306059D+03 Coefficients=  3.2430000000D-02
     Exponent=  3.7855658397D+02 Coefficients=  9.9500000000D-02
     Exponent=  1.3765693962D+02 Coefficients=  2.6570000000D-01
 S 1 1.00
     Exponent=  5.0057068954D+01 Coefficients=  1.0000000000D+00
 S 1 1.00
     Exponent=  1.8202570529D+01 Coefficients=  1.0000000000D+00
 S 1 1.00
     Exponent=  6.6191165560D+00 Coefficients=  1.0000000000D+00
 S 1 1.00
     Exponent=  2.4069514749D+00 Coefficients=  1.0000000000D+00
 S 1 1.00
     Exponent=  8.7525508178D-01 Coefficients=  1.0000000000D+00
 S 1 1.00
     Exponent=  3.1827457519D-01 Coefficients=  1.0000000000D+00
 S 1 1.00
     Exponent=  1.1573620916D-01 Coefficients=  1.0000000000D+00
 S 1 1.00
     Exponent=  4.2085894240D-02 Coefficients=  1.0000000000D+00
 P 5 1.00
     Exponent=  4.8799672315D+02 Coefficients=  2.1600000000D-03
     Exponent=  1.6266557438D+02 Coefficients=  9.7900000000D-03
     Exponent=  5.4221858128D+01 Coefficients=  5.4850000000D-02
     Exponent=  1.8073952709D+01 Coefficients=  2.1770000000D-01
     Exponent=  6.0246509031D+00 Coefficients=  4.8978000000D-01
 P 1 1.00
     Exponent=  2.0082169677D+00 Coefficients=  1.0000000000D+00
 P 1 1.00
     Exponent=  6.6940565590D-01 Coefficients=  1.0000000000D+00
 P 1 1.00
     Exponent=  2.2313521863D-01 Coefficients=  1.0000000000D+00
 P 1 1.00
     Exponent=  7.4378406211D-02 Coefficients=  1.0000000000D+00
 P 1 1.00
     Exponent=  2.4792802070D-02 Coefficients=  1.0000000000D+00
 D 1 1.00
     Exponent=  3.5395000000D-01 Coefficients=  1.0000000000D+00
 D 1 1.00
     Exponent=  8.9098000000D-02 Coefficients=  1.0000000000D+00
 ****
 Centers:      71     72     73
 S 7 1.00
     Exponent=  7.7142817164D+04 Coefficients=  1.0600000000D-03
     Exponent=  2.8051933514D+04 Coefficients=  6.4000000000D-04
     Exponent=  1.0200703096D+04 Coefficients=  3.9600000000D-03
     Exponent=  3.7093465804D+03 Coefficients=  9.8300000000D-03
     Exponent=  1.3488533020D+03 Coefficients=  3.2690000000D-02
     Exponent=  4.9049210981D+02 Coefficients=  9.9520000000D-02
     Exponent=  1.7836076720D+02 Coefficients=  2.6555000000D-01
 S 1 1.00
     Exponent=  6.4858460801D+01 Coefficients=  1.0000000000D+00
 S 1 1.00
     Exponent=  2.3584894837D+01 Coefficients=  1.0000000000D+00
 S 1 1.00
     Exponent=  8.5763253951D+00 Coefficients=  1.0000000000D+00
 S 1 1.00
     Exponent=  3.1186637801D+00 Coefficients=  1.0000000000D+00
 S 1 1.00
     Exponent=  1.1340595564D+00 Coefficients=  1.0000000000D+00
 S 1 1.00
     Exponent=  4.1238529323D-01 Coefficients=  1.0000000000D+00
 S 1 1.00
     Exponent=  1.4995828845D-01 Coefficients=  1.0000000000D+00
 S 1 1.00
     Exponent=  5.4530286708D-02 Coefficients=  1.0000000000D+00
 P 5 1.00
     Exponent=  6.9498536057D+02 Coefficients=  2.0000000000D-03
     Exponent=  2.3166178686D+02 Coefficients=  8.9500000000D-03
     Exponent=  7.7220595619D+01 Coefficients=  5.1130000000D-02
     Exponent=  2.5740198540D+01 Coefficients=  2.1011000000D-01
     Exponent=  8.5800661799D+00 Coefficients=  4.9738000000D-01
 P 1 1.00
     Exponent=  2.8600220600D+00 Coefficients=  1.0000000000D+00
 P 1 1.00
     Exponent=  9.5334068665D-01 Coefficients=  1.0000000000D+00
 P 1 1.00
     Exponent=  3.1778022888D-01 Coefficients=  1.0000000000D+00
 P 1 1.00
     Exponent=  1.0592674296D-01 Coefficients=  1.0000000000D+00
 P 1 1.00
     Exponent=  3.5308914320D-02 Coefficients=  1.0000000000D+00
 D 1 1.00
     Exponent=  5.5696000000D-01 Coefficients=  1.0000000000D+00
 D 1 1.00
     Exponent=  1.5619100000D-01 Coefficients=  1.0000000000D+00
 ****
 Centers:      70
 S 8 1.00
     Exponent=  7.5448214551D+05 Coefficients=  4.4300000000D-03
     Exponent=  3.3532539800D+05 Coefficients=  1.9800000000D-03
     Exponent=  1.4903351022D+05 Coefficients=  9.0500000000D-03
     Exponent=  6.6237115655D+04 Coefficients=  4.8700000000D-03
     Exponent=  2.9438718069D+04 Coefficients=  2.0770000000D-02
     Exponent=  1.3083874697D+04 Coefficients=  3.2900000000D-02
     Exponent=  5.8150554210D+03 Coefficients=  7.7010000000D-02
     Exponent=  2.5844690760D+03 Coefficients=  1.5160000000D-01
 S 1 1.00
     Exponent=  1.1486529227D+03 Coefficients=  1.0000000000D+00
 S 1 1.00
     Exponent=  5.1051241008D+02 Coefficients=  1.0000000000D+00
 S 1 1.00
     Exponent=  2.2689440448D+02 Coefficients=  1.0000000000D+00
 S 1 1.00
     Exponent=  1.0084195755D+02 Coefficients=  1.0000000000D+00
 S 1 1.00
     Exponent=  4.4818647798D+01 Coefficients=  1.0000000000D+00
 S 1 1.00
     Exponent=  1.9919399021D+01 Coefficients=  1.0000000000D+00
 S 1 1.00
     Exponent=  8.8530662317D+00 Coefficients=  1.0000000000D+00
 S 1 1.00
     Exponent=  3.9346961030D+00 Coefficients=  1.0000000000D+00
 S 1 1.00
     Exponent=  1.7487538235D+00 Coefficients=  1.0000000000D+00
 S 1 1.00
     Exponent=  7.7722392158D-01 Coefficients=  1.0000000000D+00
 S 1 1.00
     Exponent=  3.4543285403D-01 Coefficients=  1.0000000000D+00
 S 1 1.00
     Exponent=  1.5352571290D-01 Coefficients=  1.0000000000D+00
 S 1 1.00
     Exponent=  6.8233650180D-02 Coefficients=  1.0000000000D+00
 S 1 1.00
     Exponent=  1.3478251887D-02 Coefficients=  1.0000000000D+00
 P 5 1.00
     Exponent=  1.0090658304D+04 Coefficients=  2.7500000000D-03
     Exponent=  4.0362633217D+03 Coefficients=  4.1800000000D-03
     Exponent=  1.6145053287D+03 Coefficients=  2.0890000000D-02
     Exponent=  6.4580213147D+02 Coefficients=  7.1370000000D-02
     Exponent=  2.5832085259D+02 Coefficients=  2.2613000000D-01
 P 1 1.00
     Exponent=  1.0332834104D+02 Coefficients=  1.0000000000D+00
 P 1 1.00
     Exponent=  4.1331336414D+01 Coefficients=  1.0000000000D+00
 P 1 1.00
     Exponent=  1.6532534566D+01 Coefficients=  1.0000000000D+00
 P 1 1.00
     Exponent=  6.6130138263D+00 Coefficients=  1.0000000000D+00
 P 1 1.00
     Exponent=  2.6452055305D+00 Coefficients=  1.0000000000D+00
 P 1 1.00
     Exponent=  1.0580822122D+00 Coefficients=  1.0000000000D+00
 P 1 1.00
     Exponent=  4.2323288488D-01 Coefficients=  1.0000000000D+00
 P 1 1.00
     Exponent=  1.6929315395D-01 Coefficients=  1.0000000000D+00
 P 1 1.00
     Exponent=  6.7717261581D-02 Coefficients=  1.0000000000D+00
 P 1 1.00
     Exponent=  2.7086904632D-02 Coefficients=  1.0000000000D+00
 P 1 1.00
     Exponent=  1.0834761853D-02 Coefficients=  1.0000000000D+00
 D 4 1.00
     Exponent=  5.5430250651D+02 Coefficients=  4.3700000000D-03
     Exponent=  2.0156454782D+02 Coefficients=  2.5110000000D-02
     Exponent=  7.3296199207D+01 Coefficients=  1.3316000000D-01
     Exponent=  2.6653163348D+01 Coefficients=  3.8900000000D-01
 D 1 1.00
     Exponent=  9.6920593993D+00 Coefficients=  1.0000000000D+00
 D 1 1.00
     Exponent=  3.5243852361D+00 Coefficients=  1.0000000000D+00
 D 1 1.00
     Exponent=  1.2815946313D+00 Coefficients=  1.0000000000D+00
 D 1 1.00
     Exponent=  4.6603441139D-01 Coefficients=  1.0000000000D+00
 D 1 1.00
     Exponent=  1.6946705869D-01 Coefficients=  1.0000000000D+00
 F 1 1.00
     Exponent=  1.3140000000D+00 Coefficients=  1.0000000000D+00
 F 1 1.00
     Exponent=  1.9993000000D-01 Coefficients=  1.0000000000D+00
 ****
 Centers:       1
 S 9 1.00
     Exponent=  2.1644816090D+06 Coefficients=  1.2320000000D-02
     Exponent=  1.0822408045D+06 Coefficients=  1.2970000000D-02
     Exponent=  5.4112040224D+05 Coefficients=  2.6370000000D-02
     Exponent=  2.7056020112D+05 Coefficients=  9.0400000000D-03
     Exponent=  1.3528010056D+05 Coefficients=  3.4980000000D-02
     Exponent=  6.7640050280D+04 Coefficients=  1.2220000000D-02
     Exponent=  3.3820025140D+04 Coefficients=  6.0520000000D-02
     Exponent=  1.6910012570D+04 Coefficients=  6.4930000000D-02
     Exponent=  8.4550062850D+03 Coefficients=  1.3819000000D-01
 S 1 1.00
     Exponent=  4.2275031425D+03 Coefficients=  1.0000000000D+00
 S 1 1.00
     Exponent=  2.1137515713D+03 Coefficients=  1.0000000000D+00
 S 1 1.00
     Exponent=  1.0568757856D+03 Coefficients=  1.0000000000D+00
 S 1 1.00
     Exponent=  5.2843789281D+02 Coefficients=  1.0000000000D+00
 S 1 1.00
     Exponent=  2.6421894641D+02 Coefficients=  1.0000000000D+00
 S 1 1.00
     Exponent=  1.3210947320D+02 Coefficients=  1.0000000000D+00
 S 1 1.00
     Exponent=  6.6054736602D+01 Coefficients=  1.0000000000D+00
 S 1 1.00
     Exponent=  3.3027368301D+01 Coefficients=  1.0000000000D+00
 S 1 1.00
     Exponent=  1.6513684150D+01 Coefficients=  1.0000000000D+00
 S 1 1.00
     Exponent=  8.2568420752D+00 Coefficients=  1.0000000000D+00
 S 1 1.00
     Exponent=  4.1284210376D+00 Coefficients=  1.0000000000D+00
 S 1 1.00
     Exponent=  2.0642105188D+00 Coefficients=  1.0000000000D+00
 S 1 1.00
     Exponent=  1.0321052594D+00 Coefficients=  1.0000000000D+00
 S 1 1.00
     Exponent=  5.1605262970D-01 Coefficients=  1.0000000000D+00
 S 1 1.00
     Exponent=  2.5802631485D-01 Coefficients=  1.0000000000D+00
 S 1 1.00
     Exponent=  1.2901315743D-01 Coefficients=  1.0000000000D+00
 S 1 1.00
     Exponent=  6.4506578713D-02 Coefficients=  1.0000000000D+00
 P 7 1.00
     Exponent=  3.2357915258D+04 Coefficients=  5.0200000000D-03
     Exponent=  1.4381295670D+04 Coefficients=  2.0200000000D-03
     Exponent=  6.3916869645D+03 Coefficients=  1.8070000000D-02
     Exponent=  2.8407497620D+03 Coefficients=  3.6620000000D-02
     Exponent=  1.2625554498D+03 Coefficients=  1.1172000000D-01
     Exponent=  5.6113575545D+02 Coefficients=  2.5586000000D-01
     Exponent=  2.4939366909D+02 Coefficients=  4.2608000000D-01
 P 1 1.00
     Exponent=  1.1084163071D+02 Coefficients=  1.0000000000D+00
 P 1 1.00
     Exponent=  4.9262946981D+01 Coefficients=  1.0000000000D+00
 P 1 1.00
     Exponent=  2.1894643103D+01 Coefficients=  1.0000000000D+00
 P 1 1.00
     Exponent=  9.7309524900D+00 Coefficients=  1.0000000000D+00
 P 1 1.00
     Exponent=  4.3248677733D+00 Coefficients=  1.0000000000D+00
 P 1 1.00
     Exponent=  1.9221634548D+00 Coefficients=  1.0000000000D+00
 P 1 1.00
     Exponent=  8.5429486881D-01 Coefficients=  1.0000000000D+00
 P 1 1.00
     Exponent=  3.7968660836D-01 Coefficients=  1.0000000000D+00
 P 1 1.00
     Exponent=  1.6874960372D-01 Coefficients=  1.0000000000D+00
 P 1 1.00
     Exponent=  7.4999823874D-02 Coefficients=  1.0000000000D+00
 P 1 1.00
     Exponent=  3.3333255055D-02 Coefficients=  1.0000000000D+00
 D 5 1.00
     Exponent=  1.9119003508D+03 Coefficients=  4.3300000000D-03
     Exponent=  7.6476014031D+02 Coefficients=  1.7780000000D-02
     Exponent=  3.0590405613D+02 Coefficients=  8.9710000000D-02
     Exponent=  1.2236162245D+02 Coefficients=  3.1123000000D-01
     Exponent=  4.8944648980D+01 Coefficients=  5.3206000000D-01
 D 1 1.00
     Exponent=  1.9577859592D+01 Coefficients=  1.0000000000D+00
 D 1 1.00
     Exponent=  7.8311438368D+00 Coefficients=  1.0000000000D+00
 D 1 1.00
     Exponent=  3.1324575347D+00 Coefficients=  1.0000000000D+00
 D 1 1.00
     Exponent=  1.2529830139D+00 Coefficients=  1.0000000000D+00
 D 1 1.00
     Exponent=  5.0119320556D-01 Coefficients=  1.0000000000D+00
 D 1 1.00
     Exponent=  2.0047728222D-01 Coefficients=  1.0000000000D+00
 D 1 1.00
     Exponent=  8.0190912889D-02 Coefficients=  1.0000000000D+00
 D 1 1.00
     Exponent=  3.2076365156D-02 Coefficients=  1.0000000000D+00
 F 4 1.00
     Exponent=  8.2289680979D+01 Coefficients=  6.1870000000D-02
     Exponent=  2.9923520356D+01 Coefficients=  2.4823000000D-01
     Exponent=  1.0881280130D+01 Coefficients=  4.9956000000D-01
     Exponent=  3.9568291380D+00 Coefficients=  4.0380000000D-01
 F 1 1.00
     Exponent=  1.4388469593D+00 Coefficients=  1.0000000000D+00
 F 1 1.00
     Exponent=  5.2321707610D-01 Coefficients=  1.0000000000D+00
 G 1 1.00
     Exponent=  2.6700000000D+00 Coefficients=  1.0000000000D+00
 G 1 1.00
     Exponent=  9.0960000000D-01 Coefficients=  1.0000000000D+00
 ****
 Ernie: Thresh=  0.10000D-02 Tol=  0.10000D-05 Strict=F.
 There are  1919 symmetry adapted cartesian basis functions of A   symmetry.
 There are  1783 symmetry adapted basis functions of A   symmetry.
  1783 basis functions,  2854 primitive gaussians,  1919 cartesian basis functions
   248 alpha electrons      248 beta electrons
       nuclear repulsion energy     13249.5626640603 Hartrees.
 IExCor= 1009 DFT=T Ex=PBE Corr=PBE ExCW=0 ScaHFX=  0.000000
 ScaDFX=  1.000000  1.000000  1.000000  1.000000 ScalE2=  1.000000  1.000000
 IRadAn=      0 IRanWt=     -1 IRanGd=            0 ICorTp=0 IEmpDi=  4
 NAtoms=   84 NActive=   84 NUniq=   84 SFac= 1.00D+00 NAtFMM=   60 NAOKFM=T Big=T
 Integral buffers will be    131072 words long.
 Raffenetti 2 integral format.
 Two-electron integral symmetry is turned on.
 ------------------------------------------------------------------------------
 Polarizable Continuum Model (PCM)
 =================================
 Model                : PCM (using non-symmetric T matrix).
 Atomic radii         : UFF (Universal Force Field).
 Polarization charges : Total charges.
 Charge compensation  : None.
 Solution method      : On-the-fly selection.
 Cavity type          : Scaled VdW (van der Waals Surface) (Alpha=1.100).
 Cavity algorithm     : GePol (No added spheres)
                        Default sphere list used, NSphG=   84.
                        Lebedev-Laikov grids with approx.  5.0 points / Ang**2.
                        Smoothing algorithm: Karplus/York (Gamma=1.0000).
                        Polarization charges: spherical gaussians, with
                                              point-specific exponents (IZeta= 3).
                        Self-potential: point-specific (ISelfS= 7).
                        Self-field    : sphere-specific E.n sum rule (ISelfD= 2).
 Solvent              : Dichloromethane, Eps=   8.930000 Eps(inf)=   2.028346
 ------------------------------------------------------------------------------
 GePol: Number of generator spheres                  =      84
 GePol: Total number of spheres                      =      84
 GePol: Number of exposed spheres                    =      84 (100.00%)
 GePol: Number of points                             =    6216
 GePol: Average weight of points                     =       0.13
 GePol: Minimum weight of points                     =   0.19D-11
 GePol: Maximum weight of points                     =    0.21838
 GePol: Number of points with low weight             =     453
 GePol: Fraction of low-weight points (<1% of avg)   =       7.29%
 GePol: Cavity surface area                          =    800.288 Ang**2
 GePol: Cavity volume                                =    996.393 Ang**3
 Leave Link  301 at Thu Dec 12 20:45:44 2019, MaxMem=  4026531840 cpu:         8.9
 (Enter /scr/programs/g09/l302.exe)
 NPDir=0 NMtPBC=     1 NCelOv=     1 NCel=       1 NClECP=     1 NCelD=      1
         NCelK=      1 NCelE2=     1 NClLst=     1 CellRange=     0.0.
 One-electron integrals computed using PRISM.
 NBasis=  1783 RedAO= T EigKep=  1.52D-06  NBF=  1783
 NBsUse=  1783 1.00D-06 EigRej= -1.00D+00 NBFU=  1783
 Precomputing XC quadrature grid using
 IXCGrd= 4 IRadAn=           0 IRanWt=          -1 IRanGd=           0 AccXCQ= 0.00D+00.
 Defaulting to unpruned grid for atomic number  78.
 Defaulting to unpruned grid for atomic number  50.
 Generated NRdTot=       0 NPtTot=           0 NUsed=           0 NTot=          32
 NSgBfM=  1615  1625  1632  1637  1639 MxSgAt=    84 MxSgA2=    84.
 Leave Link  302 at Thu Dec 12 20:46:04 2019, MaxMem=  4026531840 cpu:       461.4
 (Enter /scr/programs/g09/l308.exe)
 Leave Link  308 at Thu Dec 12 20:46:07 2019, MaxMem=  4026531840 cpu:        72.2
 (Enter /scr/programs/g09/l303.exe)
 DipDrv:  MaxL=1.
 Leave Link  303 at Thu Dec 12 20:46:09 2019, MaxMem=  4026531840 cpu:        36.8
 (Enter /scr/programs/g09/l401.exe)
 ExpMin= 1.08D-02 ExpMax= 2.16D+06 ExpMxC= 2.16D+06 IAcc=4 IRadAn=    199590 AccDes= 0.00D+00
 Harris functional with IExCor= 1009 and IRadAn=  199590 diagonalized for initial guess.
 HarFok:  IExCor= 1009 AccDes= 0.00D+00 IRadAn=    199590 IDoV= 1 UseB2=F ITyADJ=14
 ICtDFT=  3500011 ScaDFX=  1.000000  1.000000  1.000000  1.000000
 FoFCou: FMM=F IPFlag=           0 FMFlag=      100000 FMFlg1=        2001
         NFxFlg=           0 DoJE=T BraDBF=F KetDBF=T FulRan=T
         wScrn=  0.000000 ICntrl=     500 IOpCl=  0 I1Cent=   200000004 NGrid=           0
         NMat0=    1 NMatS0=      1 NMatT0=    0 NMatD0=    1 NMtDS0=    0 NMtDT0=    0
 Petite list used in FoFCou.
 Harris En= -26788.0583929271    
 JPrj=0 DoOrth=F DoCkMO=F.
 Leave Link  401 at Thu Dec 12 20:48:27 2019, MaxMem=  4026531840 cpu:      3307.0
 (Enter /scr/programs/g09/l502.exe)
 Closed shell SCF:
 Using DIIS extrapolation, IDIIS=  1040.
 Integral symmetry usage will be decided dynamically.
 IVT=    11362031 IEndB=    11362031 NGot=  4026531840 MDV=  4019105290
 LenX=  4019105290 LenY=  4015420810
 Requested convergence on RMS density matrix=1.00D-03 within 500 cycles.
 Requested convergence on MAX density matrix=1.00D-01.
 Requested convergence on             energy=1.00D-01.
 No special actions if energy rises.
 Fock matrices will be formed incrementally for  20 cycles.

 Cycle   1  Pass 1  IDiag  1:
 FoFJK:  IHMeth= 1 ICntrl=     500 DoSepK=F KAlg= 0 I1Cent=   0 FoldK=F
 IRaf= 640000000 NMat=   1 IRICut=       1 DoRegI=T DoRafI=F ISym2E= 0.
 FoFCou: FMM=T IPFlag=           0 FMFlag=      100000 FMFlg1=        2001
         NFxFlg=           0 DoJE=T BraDBF=F KetDBF=F FulRan=T
         wScrn=  0.000000 ICntrl=     500 IOpCl=  0 I1Cent=           0 NGrid=           0
         NMat0=    1 NMatS0=      1 NMatT0=    0 NMatD0=    1 NMtDS0=    0 NMtDT0=    0
 Symmetry not used in FoFCou.
 FMM levels:  10  Number of levels for PrismC:   9
 Defaulting to unpruned grid for atomic number  78.
 Defaulting to unpruned grid for atomic number  78.
 Defaulting to unpruned grid for atomic number  78.
 Defaulting to unpruned grid for atomic number  78.
 Defaulting to unpruned grid for atomic number  78.
 Defaulting to unpruned grid for atomic number  78.
 Defaulting to unpruned grid for atomic number  78.
 Defaulting to unpruned grid for atomic number  78.
 Defaulting to unpruned grid for atomic number  78.
 Defaulting to unpruned grid for atomic number  78.
 Defaulting to unpruned grid for atomic number  78.
 Defaulting to unpruned grid for atomic number  78.
 Defaulting to unpruned grid for atomic number  78.
 Defaulting to unpruned grid for atomic number  78.
 Defaulting to unpruned grid for atomic number  78.
 Defaulting to unpruned grid for atomic number  78.
 Defaulting to unpruned grid for atomic number  78.
 Defaulting to unpruned grid for atomic number  78.
 Defaulting to unpruned grid for atomic number  78.
 Defaulting to unpruned grid for atomic number  78.
 Defaulting to unpruned grid for atomic number  78.
 Defaulting to unpruned grid for atomic number  78.
 Defaulting to unpruned grid for atomic number  78.
 Defaulting to unpruned grid for atomic number  78.
 Inv3:  Mode=1 IEnd=   115915968.
 Iteration    1 A*A^-1 deviation from unit magnitude is 1.33D-14 for   5177.
 Iteration    1 A*A^-1 deviation from orthogonality  is 1.17D-14 for   5144   5105.
 Iteration    1 A^-1*A deviation from unit magnitude is 1.18D-14 for   4191.
 Iteration    1 A^-1*A deviation from orthogonality  is 1.12D-09 for   5438   4670.
 Iteration    2 A*A^-1 deviation from unit magnitude is 1.10D-14 for   1870.
 Iteration    2 A*A^-1 deviation from orthogonality  is 1.02D-14 for   3628   1851.
 Iteration    2 A^-1*A deviation from unit magnitude is 1.67D-15 for   2190.
 Iteration    2 A^-1*A deviation from orthogonality  is 8.99D-16 for   5054   2444.
 E= -26767.6764066073    
 DIIS: error= 1.62D-01 at cycle   1 NSaved=   1.
 NSaved= 1 IEnMin= 1 EnMin= -26767.6764066073     IErMin= 1 ErrMin= 1.62D-01
 ErrMax= 1.62D-01  0.00D+00 EMaxC= 1.00D-01 BMatC= 3.35D+02 BMatP= 3.35D+02
 IDIUse=3 WtCom= 0.00D+00 WtEn= 1.00D+00
 Coeff-Com:  0.100D+01
 Coeff-En:   0.100D+01
 Coeff:      0.100D+01
 Gap=     0.719 Goal=   None    Shift=    0.000
 GapD=    0.719 DampG=2.000 DampE=0.125 DampFc=0.2500 IDamp=-1.
 Damping current iteration by 2.50D-01
 RMSDP=2.07D-02 MaxDP=4.49D+00              OVMax= 7.33D-01

 Cycle   2  Pass 1  IDiag  1:
 RMSU=  5.04D-03    CP:  1.09D+00
 E= -26769.2551791612     Delta-E=       -1.578772553854 Rises=F Damp=T
 DIIS: error= 1.11D-01 at cycle   2 NSaved=   2.
 NSaved= 2 IEnMin= 2 EnMin= -26769.2551791612     IErMin= 2 ErrMin= 1.11D-01
 ErrMax= 1.11D-01  0.00D+00 EMaxC= 1.00D-01 BMatC= 1.61D+02 BMatP= 3.35D+02
 IDIUse=3 WtCom= 0.00D+00 WtEn= 1.00D+00
 Coeff-Com: -0.193D+01 0.293D+01
 Coeff-En:   0.192D+00 0.808D+00
 Coeff:      0.192D+00 0.808D+00
 Gap=    -0.005 Goal=   None    Shift=    0.000
 RMSDP=5.86D-03 MaxDP=1.43D+00 DE=-1.58D+00 OVMax= 9.77D-01

 Cycle   3  Pass 1  IDiag  1:
 RMSU=  4.09D-03    CP:  8.83D-01  3.62D-01
 E= -26771.2264341440     Delta-E=       -1.971254982862 Rises=F Damp=F
 DIIS: error= 5.25D-02 at cycle   3 NSaved=   3.
 NSaved= 3 IEnMin= 3 EnMin= -26771.2264341440     IErMin= 3 ErrMin= 5.25D-02
 ErrMax= 5.25D-02  0.00D+00 EMaxC= 1.00D-01 BMatC= 1.50D+01 BMatP= 1.61D+02
 IDIUse=3 WtCom= 4.75D-01 WtEn= 5.25D-01
 EnCoef did   100 forward-backward iterations
 Coeff-Com:  0.871D+00-0.102D+01 0.115D+01
 Coeff-En:   0.300D+00 0.496D-02 0.696D+00
 Coeff:      0.571D+00-0.480D+00 0.910D+00
 Gap=     0.078 Goal=   None    Shift=    0.000
 RMSDP=1.21D-02 MaxDP=3.67D+00 DE=-1.97D+00 OVMax= 7.01D-01

 Cycle   4  Pass 1  IDiag  1:
 RMSU=  9.13D-03    CP:  1.27D+00  1.10D+00 -2.13D-01
 E= -26762.5204180020     Delta-E=        8.706016142030 Rises=F Damp=F
 DIIS: error= 3.84D-02 at cycle   4 NSaved=   4.
 NSaved= 4 IEnMin= 3 EnMin= -26771.2264341440     IErMin= 4 ErrMin= 3.84D-02
 ErrMax= 3.84D-02  0.00D+00 EMaxC= 1.00D-01 BMatC= 1.06D+01 BMatP= 1.50D+01
 IDIUse=3 WtCom= 6.16D-01 WtEn= 3.84D-01
 EnCoef did     5 forward-backward iterations
 Coeff-Com:  0.577D+00-0.707D+00 0.725D+00 0.404D+00
 Coeff-En:   0.254D+00 0.000D+00 0.662D+00 0.847D-01
 Coeff:      0.453D+00-0.436D+00 0.701D+00 0.282D+00
 Gap=     0.030 Goal=   None    Shift=    0.000
 RMSDP=1.13D-02 MaxDP=3.51D+00 DE= 8.71D+00 OVMax= 9.92D-01

 Cycle   5  Pass 1  IDiag  1:
 RMSU=  1.60D-03    CP:  8.97D-01  2.17D-01  5.43D-01  6.39D-02
 E= -26773.2105635190     Delta-E=      -10.690145516979 Rises=F Damp=F
 DIIS: error= 1.16D-02 at cycle   5 NSaved=   5.
 NSaved= 5 IEnMin= 5 EnMin= -26773.2105635190     IErMin= 5 ErrMin= 1.16D-02
 ErrMax= 1.16D-02  0.00D+00 EMaxC= 1.00D-01 BMatC= 6.65D-01 BMatP= 1.06D+01
 IDIUse=3 WtCom= 8.84D-01 WtEn= 1.16D-01
 EnCoef did     2 forward-backward iterations
 Coeff-Com: -0.238D-01 0.523D-01 0.160D+00 0.121D+00 0.690D+00
 Coeff-En:   0.000D+00 0.000D+00 0.417D-01 0.137D-01 0.945D+00
 Coeff:     -0.211D-01 0.463D-01 0.146D+00 0.109D+00 0.720D+00
 Gap=     0.170 Goal=   None    Shift=    0.000
 RMSDP=2.34D-03 MaxDP=3.30D-01 DE=-1.07D+01 OVMax= 2.28D-01

 Cycle   6  Pass 1  IDiag  1:
 RMSU=  1.56D-03    CP:  9.62D-01  2.46D-01  5.36D-01  8.84D-02  5.92D-02
 E= -26773.0148847129     Delta-E=        0.195678806136 Rises=F Damp=F
 DIIS: error= 7.41D-03 at cycle   6 NSaved=   6.
 NSaved= 6 IEnMin= 5 EnMin= -26773.2105635190     IErMin= 6 ErrMin= 7.41D-03
 ErrMax= 7.41D-03  0.00D+00 EMaxC= 1.00D-01 BMatC= 6.28D-01 BMatP= 6.65D-01
 IDIUse=3 WtCom= 9.26D-01 WtEn= 7.41D-02
 Coeff-Com: -0.841D-01 0.121D+00 0.322D-01 0.331D-01 0.538D+00 0.360D+00
 Coeff-En:   0.000D+00 0.000D+00 0.000D+00 0.000D+00 0.564D+00 0.436D+00
 Coeff:     -0.778D-01 0.112D+00 0.298D-01 0.306D-01 0.540D+00 0.366D+00
 Gap=     0.135 Goal=   None    Shift=    0.000
 RMSDP=1.56D-03 MaxDP=1.79D-01 DE= 1.96D-01 OVMax= 2.16D-01

 Cycle   7  Pass 1  IDiag  1:
 RMSU=  7.38D-04    CP:  9.19D-01  2.26D-01  5.68D-01  8.50D-02  5.14D-01
                    CP:  3.49D-01
 E= -26773.6606901868     Delta-E=       -0.645805473992 Rises=F Damp=F
 DIIS: error= 3.57D-03 at cycle   7 NSaved=   7.
 NSaved= 7 IEnMin= 7 EnMin= -26773.6606901868     IErMin= 7 ErrMin= 3.57D-03
 ErrMax= 3.57D-03  0.00D+00 EMaxC= 1.00D-01 BMatC= 4.97D-02 BMatP= 6.28D-01
 IDIUse=3 WtCom= 9.64D-01 WtEn= 3.57D-02
 Coeff-Com: -0.622D-01 0.863D-01-0.298D-02 0.721D-02 0.277D+00 0.242D+00
 Coeff-Com:  0.452D+00
 Coeff-En:   0.000D+00 0.000D+00 0.000D+00 0.000D+00 0.000D+00 0.465D-01
 Coeff-En:   0.954D+00
 Coeff:     -0.600D-01 0.832D-01-0.287D-02 0.695D-02 0.267D+00 0.235D+00
 Coeff:      0.470D+00
 Gap=     0.096 Goal=   None    Shift=    0.000
 RMSDP=5.58D-04 MaxDP=9.65D-02 DE=-6.46D-01 OVMax= 8.67D-02

 Cycle   8  Pass 1  IDiag  1:
 RMSU=  3.23D-04    CP:  9.27D-01  2.52D-01  5.60D-01  9.69D-02  5.80D-01
                    CP:  4.41D-01  5.03D-01
 E= -26773.7022624421     Delta-E=       -0.041572255235 Rises=F Damp=F
 DIIS: error= 1.14D-03 at cycle   8 NSaved=   8.
 NSaved= 8 IEnMin= 8 EnMin= -26773.7022624421     IErMin= 8 ErrMin= 1.14D-03
 ErrMax= 1.14D-03  0.00D+00 EMaxC= 1.00D-01 BMatC= 1.07D-02 BMatP= 4.97D-02
 IDIUse=3 WtCom= 9.89D-01 WtEn= 1.14D-02
 Coeff-Com: -0.118D-01 0.159D-01-0.412D-02 0.306D-02 0.738D-01 0.705D-01
 Coeff-Com:  0.305D+00 0.548D+00
 Coeff-En:   0.000D+00 0.000D+00 0.000D+00 0.000D+00 0.000D+00 0.000D+00
 Coeff-En:   0.215D+00 0.785D+00
 Coeff:     -0.117D-01 0.158D-01-0.408D-02 0.302D-02 0.730D-01 0.697D-01
 Coeff:      0.304D+00 0.551D+00
 Gap=     0.094 Goal=   None    Shift=    0.000
 RMSDP=2.23D-04 MaxDP=2.90D-02 DE=-4.16D-02 OVMax= 4.88D-02

 Error on total polarization charges =  0.02539
 SCF Done:  E(RPBE-PBE) =  -26773.7022624     A.U. after    8 cycles
            NFock=  8  Conv=0.22D-03     -V/T= 2.0155
 KE= 2.636616170453D+04 PE=-8.982395369681D+04 EE= 2.343452706578D+04
 Leave Link  502 at Thu Dec 12 21:23:58 2019, MaxMem=  4026531840 cpu:     48911.1
 (Enter /scr/programs/g09/l801.exe)
 Range of M.O.s used for correlation:     1  1783
 NBasis=  1783 NAE=   248 NBE=   248 NFC=     0 NFV=     0
 NROrb=   1783 NOA=   248 NOB=   248 NVA=  1535 NVB=  1535

 **** Warning!!: The largest alpha MO coefficient is  0.63662761D+02


 **** Warning!!: The smallest alpha delta epsilon is  0.93888537D-01

 Leave Link  801 at Thu Dec 12 21:23:58 2019, MaxMem=  4026531840 cpu:         3.5
 (Enter /scr/programs/g09/l1002.exe)
 Minotr:  Closed shell wavefunction.
 NEqPCM:  Using equilibrium solvation (IEInf=0, Eps=   8.9300, EpsInf=   2.0283)
          Direct CPHF calculation.
          Differentiating once with respect to magnetic field using GIAOs.
          Electric field/nuclear overlap derivatives assumed to be zero.
          Requested convergence is 1.0D-08 RMS, and 1.0D-07 maximum.
          Secondary convergence is 1.0D-12 RMS, and 1.0D-12 maximum.
          NewPWx=T KeepS1=F KeepF1=F KeepIn=T MapXYZ=F SortEE=F KeepMc=T.
          MDV=    4026529381 using IRadAn=       2.
 Defaulting to unpruned grid for atomic number  78.
 Defaulting to unpruned grid for atomic number  50.
 Generate precomputed XC quadrature information.
          Solving linear equations simultaneously, MaxMat=      72.
 FoFJK:  IHMeth= 1 ICntrl=    6127 DoSepK=F KAlg= 0 I1Cent=   0 FoldK=F
 IRaf=         1 NMat=   1 IRICut=       1 DoRegI=T DoRafI=F ISym2E= 0.
 Defaulting to unpruned grid for atomic number  78.
 Defaulting to unpruned grid for atomic number  78.
 Defaulting to unpruned grid for atomic number  78.
 Defaulting to unpruned grid for atomic number  78.
 Defaulting to unpruned grid for atomic number  78.
 Defaulting to unpruned grid for atomic number  78.
 Defaulting to unpruned grid for atomic number  78.
 Defaulting to unpruned grid for atomic number  78.
 Defaulting to unpruned grid for atomic number  78.
 Defaulting to unpruned grid for atomic number  78.
 Defaulting to unpruned grid for atomic number  78.
 Defaulting to unpruned grid for atomic number  78.
 Defaulting to unpruned grid for atomic number  78.
 Defaulting to unpruned grid for atomic number  78.
 Defaulting to unpruned grid for atomic number  78.
 Defaulting to unpruned grid for atomic number  78.
 Defaulting to unpruned grid for atomic number  78.
 Defaulting to unpruned grid for atomic number  78.
 Defaulting to unpruned grid for atomic number  78.
 Defaulting to unpruned grid for atomic number  78.
 Defaulting to unpruned grid for atomic number  78.
 Defaulting to unpruned grid for atomic number  78.
 Defaulting to unpruned grid for atomic number  78.
 Defaulting to unpruned grid for atomic number  78.
          There are     3 degrees of freedom in the 1st order CPHF.  IDoFFX=0 NUNeed=     3.
      3 vectors produced by pass  0 Test12= 1.27D-11 3.33D-08 XBig12= 7.14D+03 5.90D+00.
 AX will form     3 AO Fock derivatives at one time.
 InvSVY:  IOpt=1 It=  1 EMax= 0.00D+00
 Solved reduced A of dimension     3 with     3 vectors.
 Calculating GIAO nuclear magnetic shielding tensors.
 SCF GIAO Magnetic shielding tensor (ppm):
      1  Pt   Isotropic =  2962.4648   Anisotropy =  1671.1897
   XX=  3536.0644   YX=  -302.6441   ZX=  -288.7935
   XY=   -66.3208   YY=  3987.9977   ZY=   129.8233
   XZ=  -224.2708   YZ=   210.5053   ZZ=  1363.3324
   Eigenvalues:  1325.2074  3485.5958  4076.5913
      2  P    Isotropic =   263.3021   Anisotropy =    64.3948
   XX=   290.9533   YX=    20.9660   ZX=     5.2290
   XY=    42.4254   YY=   240.0408   ZY=   -12.6750
   XZ=     6.2373   YZ=   -20.0120   ZZ=   258.9123
   Eigenvalues:   217.6537   266.0206   306.2320
      3  P    Isotropic =   242.8820   Anisotropy =   134.4231
   XX=   236.4328   YX=   -81.5959   ZX=    17.5111
   XY=   -67.2619   YY=   268.5670   ZY=    32.2290
   XZ=    22.8258   YZ=    50.2236   ZZ=   223.6463
   Eigenvalues:   151.6147   244.5340   332.4974
      4  C    Isotropic =    39.9664   Anisotropy =   217.9555
   XX=   100.7238   YX=   -44.3270   ZX=   -57.0323
   XY=   -95.7765   YY=    42.0085   ZY=   116.3217
   XZ=   -36.8393   YZ=    55.0098   ZZ=   -22.8331
   Eigenvalues:   -82.0177    16.6468   185.2701
      5  C    Isotropic =    38.0273   Anisotropy =   190.6906
   XX=    33.6377   YX=   -76.7405   ZX=   -80.7694
   XY=   -74.9190   YY=    88.2832   ZY=    23.4112
   XZ=   -73.6960   YZ=    17.6217   ZZ=    -7.8392
   Eigenvalues:   -73.9028    22.8302   165.1543
      6  C    Isotropic =    20.0332   Anisotropy =   160.8743
   XX=    24.9911   YX=   -80.0234   ZX=   -24.9241
   XY=  -121.6798   YY=    -1.7743   ZY=    32.2970
   XZ=   -24.3561   YZ=    19.1622   ZZ=    36.8829
   Eigenvalues:   -90.2076    23.0245   127.2828
      7  C    Isotropic =    21.3032   Anisotropy =   158.9770
   XX=    17.1870   YX=   -90.7163   ZX=   -10.8788
   XY=  -111.1552   YY=     8.8869   ZY=    42.4397
   XZ=    -9.8052   YZ=    34.2803   ZZ=    37.8357
   Eigenvalues:   -91.3894    28.0112   127.2879
      8  H    Isotropic =    24.4983   Anisotropy =    12.0153
   XX=    24.1983   YX=     5.0200   ZX=    -6.1558
   XY=     1.6371   YY=    25.4046   ZY=    -3.1498
   XZ=    -4.3689   YZ=    -3.6788   ZZ=    23.8920
   Eigenvalues:    18.7768    22.2097    32.5085
      9  C    Isotropic =    34.4253   Anisotropy =   174.9094
   XX=    41.3533   YX=   -68.8140   ZX=   -75.7470
   XY=   -65.4743   YY=    88.3245   ZY=     6.5376
   XZ=   -74.0479   YZ=     6.2210   ZZ=   -26.4018
   Eigenvalues:   -81.2138    33.4582   151.0316
     10  H    Isotropic =    24.3451   Anisotropy =    12.6179
   XX=    19.7860   YX=    -1.2926   ZX=    -0.7125
   XY=    -1.9691   YY=    22.4119   ZY=    -5.2592
   XZ=    -3.9774   YZ=    -3.1194   ZZ=    30.8373
   Eigenvalues:    17.6949    22.5833    32.7570
     11  C    Isotropic =    47.7153   Anisotropy =   287.6597
   XX=   110.5438   YX=   -85.3984   ZX=   -57.3959
   XY=  -109.2808   YY=    79.3738   ZY=   145.7471
   XZ=   -33.5471   YZ=    91.6104   ZZ=   -46.7717
   Eigenvalues:  -118.7641    22.4216   239.4884
     12  H    Isotropic =    19.1929   Anisotropy =    11.4507
   XX=    17.3720   YX=     7.8643   ZX=     1.7982
   XY=     7.6403   YY=    14.8927   ZY=    -3.8964
   XZ=     2.8719   YZ=    -4.5023   ZZ=    25.3141
   Eigenvalues:     7.0623    23.6897    26.8267
     13  H    Isotropic =    22.3329   Anisotropy =    10.4115
   XX=    20.2073   YX=     3.7980   ZX=    -1.1115
   XY=     4.6267   YY=    22.1294   ZY=    -4.8282
   XZ=    -1.0837   YZ=    -3.7924   ZZ=    24.6620
   Eigenvalues:    16.3353    21.3896    29.2739
     14  H    Isotropic =    18.6466   Anisotropy =    12.6714
   XX=    18.1819   YX=     9.4871   ZX=     3.2940
   XY=    10.6954   YY=    15.6368   ZY=    -3.6712
   XZ=     3.6345   YZ=    -3.4998   ZZ=    22.1211
   Eigenvalues:     5.2663    23.5793    27.0942
     15  C    Isotropic =    59.2688   Anisotropy =   248.4160
   XX=   224.6166   YX=    35.3784   ZX=    33.2635
   XY=   -35.9990   YY=   -26.2145   ZY=   -51.9271
   XZ=   -17.5987   YZ=   -39.7929   ZZ=   -20.5956
   Eigenvalues:   -69.4410    22.3680   224.8795
     16  C    Isotropic =    45.4585   Anisotropy =   223.7384
   XX=   194.4804   YX=    21.6265   ZX=     9.1234
   XY=   -27.6274   YY=   -78.1290   ZY=    35.4999
   XZ=     0.0399   YZ=    31.6765   ZZ=    20.0243
   Eigenvalues:   -88.5854    30.3436   194.6175
     17  C    Isotropic =    54.8310   Anisotropy =   225.4797
   XX=   205.0503   YX=    -4.7267   ZX=     5.8693
   XY=    -1.7878   YY=     8.3430   ZY=    35.6669
   XZ=   -11.4245   YZ=    38.5462   ZZ=   -48.9004
   Eigenvalues:   -67.1453    26.4874   205.1508
     18  C    Isotropic =    18.3483   Anisotropy =   183.2323
   XX=   137.9882   YX=     2.5200   ZX=    38.0845
   XY=    13.1843   YY=    14.8499   ZY=    32.0489
   XZ=     0.3545   YZ=    40.2416   ZZ=   -97.7933
   Eigenvalues:  -109.4643    24.0060   140.5031
     19  H    Isotropic =    23.1605   Anisotropy =     9.1789
   XX=    22.3990   YX=     0.4151   ZX=     0.2052
   XY=    -1.6707   YY=    19.6717   ZY=     5.0330
   XZ=     2.8887   YZ=     2.8724   ZZ=    27.4109
   Eigenvalues:    17.7060    22.4958    29.2798
     20  C    Isotropic =    15.1032   Anisotropy =   164.4566
   XX=   119.4424   YX=    48.2517   ZX=     4.8969
   XY=    12.5558   YY=  -103.7856   ZY=    16.4499
   XZ=    15.6404   YZ=    -6.7787   ZZ=    29.6528
   Eigenvalues:  -107.9384    28.5071   124.7410
     21  H    Isotropic =    24.0671   Anisotropy =    12.4099
   XX=    20.0808   YX=    -0.2898   ZX=    -3.7933
   XY=     3.0767   YY=    29.4703   ZY=     6.4194
   XZ=    -2.3682   YZ=     4.1151   ZZ=    22.6503
   Eigenvalues:    16.5560    23.3050    32.3404
     22  C    Isotropic =    31.3918   Anisotropy =   274.6220
   XX=   214.1337   YX=    32.3215   ZX=    35.9474
   XY=   -16.1621   YY=   -45.3750   ZY=   -74.0196
   XZ=   -21.3327   YZ=   -85.2532   ZZ=   -74.5834
   Eigenvalues:  -141.2710    20.9732   214.4731
     23  H    Isotropic =    19.6370   Anisotropy =    12.1610
   XX=     9.5234   YX=    -0.3596   ZX=     0.9495
   XY=     0.0884   YY=    25.9011   ZY=     3.0908
   XZ=     6.3502   YZ=     2.0613   ZZ=    23.4866
   Eigenvalues:     8.5940    22.5727    27.7443
     24  H    Isotropic =    18.9882   Anisotropy =    13.0571
   XX=     6.4616   YX=     0.0677   ZX=    -0.4880
   XY=     6.0112   YY=    24.1123   ZY=     2.2293
   XZ=     1.9785   YZ=     1.5642   ZZ=    26.3908
   Eigenvalues:     5.9440    23.3277    27.6929
     25  H    Isotropic =    17.4145   Anisotropy =    13.3775
   XX=     1.7907   YX=     0.2073   ZX=     0.9163
   XY=     4.7348   YY=    25.7085   ZY=    -0.6833
   XZ=     4.7227   YZ=    -1.2628   ZZ=    24.7444
   Eigenvalues:     1.1799    24.7308    26.3328
     26  C    Isotropic =    12.7530   Anisotropy =   190.4977
   XX=   -71.9564   YX=    59.4788   ZX=    -6.5029
   XY=    73.9909   YY=   118.3569   ZY=   -10.4603
   XZ=   -15.7140   YZ=     2.9341   ZZ=    -8.1415
   Eigenvalues:   -94.0691    -7.4233   139.7515
     27  C    Isotropic =   -26.1150   Anisotropy =    93.3617
   XX=     3.5893   YX=    28.0991   ZX=   -77.2975
   XY=   -20.3583   YY=     1.3861   ZY=    77.2441
   XZ=   -46.3382   YZ=   -45.9909   ZZ=   -83.3206
   Eigenvalues:  -117.4911     3.0198    36.1261
     28  C    Isotropic =    38.7901   Anisotropy =   158.2563
   XX=    46.2506   YX=    84.1991   ZX=    52.4880
   XY=    43.5502   YY=    96.9343   ZY=   -38.1222
   XZ=    16.3317   YZ=   -67.1723   ZZ=   -26.8146
   Eigenvalues:   -73.6075    45.6835   144.2943
     29  C    Isotropic =    56.6492   Anisotropy =   212.4780
   XX=    46.9661   YX=    57.0409   ZX=    17.6395
   XY=    45.8157   YY=   180.8048   ZY=     1.3066
   XZ=    43.3796   YZ=   -17.6375   ZZ=   -57.8235
   Eigenvalues:   -68.0248    39.6711   198.3012
     30  H    Isotropic =    26.6368   Anisotropy =    11.1296
   XX=    29.7306   YX=   -10.1222   ZX=    -4.9904
   XY=     3.1418   YY=    31.1905   ZY=     1.1755
   XZ=    -3.5588   YZ=    -6.5999   ZZ=    18.9892
   Eigenvalues:    16.5302    29.3236    34.0565
     31  C    Isotropic =   100.7508   Anisotropy =   257.6488
   XX=    61.1362   YX=    68.2931   ZX=   -48.6307
   XY=    77.0084   YY=   244.2911   ZY=   -20.5883
   XZ=   -31.1836   YZ=   -11.0753   ZZ=    -3.1748
   Eigenvalues:   -23.6100    53.3458   272.5167
     32  H    Isotropic =    25.3610   Anisotropy =    12.3442
   XX=    31.3767   YX=    -4.0629   ZX=     5.6832
   XY=    -2.3200   YY=    23.0522   ZY=    -0.8229
   XZ=     0.2156   YZ=    -4.4635   ZZ=    21.6541
   Eigenvalues:    19.6009    22.8916    33.5905
     33  C    Isotropic =    70.1078   Anisotropy =   177.3850
   XX=    -9.2683   YX=   102.8905   ZX=    -8.9388
   XY=     1.7601   YY=   171.0705   ZY=   -16.1830
   XZ=    21.3082   YZ=   -30.9293   ZZ=    48.5211
   Eigenvalues:   -25.3883    47.3472   188.3644
     34  H    Isotropic =    25.2298   Anisotropy =     8.2507
   XX=    29.0769   YX=    -4.5518   ZX=     0.6788
   XY=    -2.1650   YY=    21.8624   ZY=    -0.2068
   XZ=     0.7177   YZ=    -3.7774   ZZ=    24.7501
   Eigenvalues:    19.9838    24.9753    30.7303
     35  H    Isotropic =    28.4257   Anisotropy =     5.3279
   XX=    30.4723   YX=    -0.9917   ZX=     0.0473
   XY=     2.1456   YY=    31.4384   ZY=     0.3165
   XZ=    -2.5692   YZ=    -2.4504   ZZ=    23.3664
   Eigenvalues:    23.0400    30.2594    31.9776
     36  H    Isotropic =    27.8143   Anisotropy =     3.8557
   XX=    26.8924   YX=    -0.2578   ZX=    -0.1257
   XY=     3.1823   YY=    29.1790   ZY=    -0.6866
   XZ=    -0.8912   YZ=    -1.5292   ZZ=    27.3716
   Eigenvalues:    26.1785    26.8797    30.3848
     37  C    Isotropic =    76.8751   Anisotropy =   279.4668
   XX=   100.8280   YX=  -190.4236   ZX=    68.4757
   XY=   -71.3797   YY=   113.4795   ZY=   -39.9901
   XZ=    67.1040   YZ=   -47.2014   ZZ=    16.3178
   Eigenvalues:   -35.9732     3.4123   263.1863
     38  C    Isotropic =    49.8683   Anisotropy =   223.6734
   XX=   117.6705   YX=   -91.6485   ZX=    92.1814
   XY=   -57.3772   YY=    79.6556   ZY=   -51.8201
   XZ=    43.2675   YZ=   -21.1802   ZZ=   -47.7213
   Eigenvalues:   -72.6323    23.2533   198.9838
     39  C    Isotropic =   102.2194   Anisotropy =   307.5834
   XX=   195.5038   YX=  -142.5368   ZX=    79.8614
   XY=  -110.4477   YY=   109.5424   ZY=   -47.6128
   XZ=    37.2828   YZ=   -64.8279   ZZ=     1.6119
   Eigenvalues:   -22.5479    21.9311   307.2750
     40  C    Isotropic =   -17.4612   Anisotropy =    87.5367
   XX=     3.4938   YX=   -19.9565   ZX=   -22.3705
   XY=   -34.7049   YY=   -17.3288   ZY=   -67.9295
   XZ=   -21.0615   YZ=   -64.9367   ZZ=   -38.5487
   Eigenvalues:  -105.9663    12.6860    40.8966
     41  H    Isotropic =    23.1015   Anisotropy =    12.1427
   XX=    24.0682   YX=     4.4193   ZX=    -0.9115
   XY=     6.2180   YY=    27.1564   ZY=    -0.4681
   XZ=    -1.7538   YZ=     4.3800   ZZ=    18.0798
   Eigenvalues:    16.5966    21.5112    31.1966
     42  C    Isotropic =     9.2676   Anisotropy =   113.3060
   XX=    -2.4376   YX=   -30.1760   ZX=    85.1798
   XY=   -48.2945   YY=    50.3623   ZY=    18.4569
   XZ=    57.3002   YZ=   -10.4283   ZZ=   -20.1219
   Eigenvalues:   -89.2959    32.2937    84.8049
     43  H    Isotropic =    22.9161   Anisotropy =    11.1282
   XX=    24.3394   YX=     2.5213   ZX=    -4.5717
   XY=     0.7039   YY=    23.3845   ZY=    -4.5920
   XZ=    -6.1791   YZ=    -3.3362   ZZ=    21.0243
   Eigenvalues:    16.2331    22.1803    30.3348
     44  C    Isotropic =     3.0832   Anisotropy =   225.4513
   XX=    -5.4345   YX=  -190.5307   ZX=    47.8345
   XY=  -112.1812   YY=   -15.8488   ZY=   -10.7246
   XZ=    11.0506   YZ=   -41.4812   ZZ=    30.5329
   Eigenvalues:  -162.1023    17.9678   153.3841
     45  H    Isotropic =    16.3626   Anisotropy =    15.3968
   XX=     8.0226   YX=    11.5257   ZX=    -6.7844
   XY=     8.7273   YY=    20.8711   ZY=     2.2003
   XZ=    -9.2755   YZ=     4.8391   ZZ=    20.1940
   Eigenvalues:    -1.1259    23.5865    26.6271
     46  H    Isotropic =    19.7221   Anisotropy =    11.9817
   XX=    13.8376   YX=     9.0763   ZX=    -3.0547
   XY=     4.8161   YY=    24.1925   ZY=     0.8130
   XZ=    -2.4100   YZ=     0.9504   ZZ=    21.1361
   Eigenvalues:     9.6499    21.8064    27.7099
     47  H    Isotropic =    15.1629   Anisotropy =    15.7054
   XX=     3.9198   YX=    14.5482   ZX=    -7.2948
   XY=     8.8481   YY=    18.6372   ZY=     3.7095
   XZ=    -6.9862   YZ=     4.9743   ZZ=    22.9319
   Eigenvalues:    -5.0349    24.8905    25.6332
     48  C    Isotropic =    16.2649   Anisotropy =   175.3128
   XX=    28.7956   YX=    47.7129   ZX=    -1.6198
   XY=     7.2900   YY=   125.8014   ZY=    -3.4429
   XZ=    47.2459   YZ=   -17.7752   ZZ=  -105.8024
   Eigenvalues:  -110.5270    26.1815   133.1401
     49  C    Isotropic =   -34.2310   Anisotropy =    89.2466
   XX=   -37.6872   YX=   -35.6010   ZX=   -24.5329
   XY=    39.4406   YY=     4.4578   ZY=    45.1221
   XZ=   -79.9595   YZ=    23.3626   ZZ=   -69.4634
   Eigenvalues:  -115.2238   -12.7358    25.2668
     50  C    Isotropic =    51.8355   Anisotropy =   199.5805
   XX=   -28.1806   YX=    43.0107   ZX=    28.9326
   XY=    84.2306   YY=   163.6797   ZY=    16.3644
   XZ=    16.8402   YZ=     7.8853   ZZ=    20.0073
   Eigenvalues:   -52.1520    22.7693   184.8891
     51  C    Isotropic =    30.3944   Anisotropy =   190.6182
   XX=   -54.1118   YX=    82.2713   ZX=    14.2339
   XY=   108.9033   YY=   114.2822   ZY=    -7.8127
   XZ=   -16.8697   YZ=    10.9811   ZZ=    31.0128
   Eigenvalues:   -97.3232    31.0332   157.4732
     52  H    Isotropic =    22.4544   Anisotropy =    16.6532
   XX=    23.1892   YX=    -9.4724   ZX=    -5.5713
   XY=    -1.8653   YY=    16.0361   ZY=    -0.9743
   XZ=    -9.2013   YZ=    -4.1025   ZZ=    28.1381
   Eigenvalues:    10.7623    23.0444    33.5566
     53  C    Isotropic =   117.7025   Anisotropy =   273.7160
   XX=    68.7178   YX=    85.6428   ZX=   -11.4980
   XY=    83.4619   YY=   269.2921   ZY=    14.4878
   XZ=   -40.6933   YZ=     5.6922   ZZ=    15.0978
   Eigenvalues:    -3.7309    56.6586   300.1799
     54  H    Isotropic =    22.6128   Anisotropy =    14.5040
   XX=    18.5483   YX=    -8.1573   ZX=     1.1063
   XY=    -1.5024   YY=    17.2660   ZY=     1.3756
   XZ=     0.0985   YZ=     2.5602   ZZ=    32.0242
   Eigenvalues:    12.8505    22.7059    32.2822
     55  C    Isotropic =    55.7106   Anisotropy =   143.4982
   XX=    24.8210   YX=    33.9771   ZX=    53.3512
   XY=    53.4557   YY=   136.0696   ZY=   -58.4120
   XZ=    28.3188   YZ=    19.7900   ZZ=     6.2412
   Eigenvalues:   -37.0343    52.7901   151.3761
     56  H    Isotropic =    21.5913   Anisotropy =    10.2107
   XX=    21.7477   YX=    -7.7837   ZX=     0.0136
   XY=    -3.2981   YY=    14.6887   ZY=     0.6582
   XZ=    -1.2229   YZ=    -1.2013   ZZ=    28.3375
   Eigenvalues:    11.6319    24.7436    28.3984
     57  H    Isotropic =    27.5420   Anisotropy =     6.0257
   XX=    23.4975   YX=    -1.5984   ZX=    -1.9512
   XY=     2.4189   YY=    31.5104   ZY=     1.8938
   XZ=    -4.5053   YZ=    -2.1088   ZZ=    27.6182
   Eigenvalues:    21.7185    29.3485    31.5591
     58  H    Isotropic =    26.6909   Anisotropy =     3.8544
   XX=    26.1960   YX=    -1.1636   ZX=     0.4803
   XY=     0.2389   YY=    29.1418   ZY=     1.4314
   XZ=    -0.6486   YZ=    -2.3970   ZZ=    24.7347
   Eigenvalues:    24.6704    26.1417    29.2605
     59  C    Isotropic =     0.7947   Anisotropy =   130.0352
   XX=    58.1301   YX=    24.4174   ZX=     0.4483
   XY=    61.9199   YY=    16.6630   ZY=    39.3141
   XZ=   -77.1265   YZ=    16.6702   ZZ=   -72.4091
   Eigenvalues:   -96.6759    11.5751    87.4848
     60  C    Isotropic =     4.0488   Anisotropy =   123.3390
   XX=    65.9593   YX=    19.7787   ZX=   -12.2809
   XY=    32.4600   YY=     0.2698   ZY=   -53.6665
   XZ=   -19.2335   YZ=   -69.7350   ZZ=   -54.0825
   Eigenvalues:   -94.3344    20.2060    86.2748
     61  C    Isotropic =    13.5560   Anisotropy =   125.4939
   XX=    52.9449   YX=    49.2759   ZX=   -13.5013
   XY=    92.3560   YY=   -53.0847   ZY=   -31.8615
   XZ=   -18.4006   YZ=    -3.7423   ZZ=    40.8076
   Eigenvalues:   -89.1377    32.5870    97.2186
     62  C    Isotropic =    46.7330   Anisotropy =   213.8851
   XX=   122.2093   YX=    83.3509   ZX=   -33.4710
   XY=   123.8173   YY=   -28.4445   ZY=   -29.5169
   XZ=   -33.8997   YZ=   -37.3087   ZZ=    46.4343
   Eigenvalues:   -82.9234    33.7994   189.3231
     63  H    Isotropic =    24.2887   Anisotropy =    13.7483
   XX=    25.9655   YX=    -4.7386   ZX=     1.8217
   XY=    -7.0710   YY=    25.3001   ZY=    -3.1566
   XZ=     4.8970   YZ=    -3.5784   ZZ=    21.6006
   Eigenvalues:    19.5758    19.8361    33.4543
     64  C    Isotropic =    59.1880   Anisotropy =   221.1774
   XX=   145.1075   YX=    68.4818   ZX=   -37.6294
   XY=    74.3281   YY=    52.5773   ZY=   -81.8147
   XZ=   -39.1301   YZ=   -69.4513   ZZ=   -20.1207
   Eigenvalues:   -67.8613    38.7858   206.6397
     65  H    Isotropic =    23.5762   Anisotropy =    12.7294
   XX=    23.7250   YX=     0.8292   ZX=     5.0494
   XY=     0.1453   YY=    18.7291   ZY=    -3.9676
   XZ=     4.9680   YZ=    -3.0567   ZZ=    28.2745
   Eigenvalues:    16.7949    21.8712    32.0624
     66  C    Isotropic =    78.6324   Anisotropy =   293.3257
   XX=   182.8853   YX=    99.0195   ZX=   -64.1165
   XY=   134.0285   YY=    69.1003   ZY=    14.5136
   XZ=  -108.0574   YZ=   -11.8849   ZZ=   -16.0885
   Eigenvalues:   -66.8537    28.5679   274.1828
     67  H    Isotropic =    22.6994   Anisotropy =     7.7822
   XX=    20.9100   YX=    -3.9185   ZX=     3.6877
   XY=    -3.6413   YY=    21.7580   ZY=     0.4735
   XZ=     3.7195   YZ=     0.7062   ZZ=    25.4302
   Eigenvalues:    16.3720    23.8386    27.8876
     68  H    Isotropic =    24.4941   Anisotropy =     6.8537
   XX=    25.3454   YX=    -1.8329   ZX=     1.9265
   XY=    -2.3042   YY=    23.7561   ZY=    -3.5559
   XZ=     1.8648   YZ=    -2.1946   ZZ=    24.3807
   Eigenvalues:    21.1500    23.2690    29.0632
     69  H    Isotropic =    23.2160   Anisotropy =     5.3965
   XX=    21.6896   YX=    -3.4434   ZX=     1.6028
   XY=    -3.3820   YY=    24.4408   ZY=     1.1527
   XZ=     0.9792   YZ=     1.6569   ZZ=    23.5177
   Eigenvalues:    18.6713    24.1631    26.8137
     70  Sn   Isotropic =  2074.6131   Anisotropy =   562.8173
   XX=  2444.0218   YX=    20.0876   ZX=    12.2617
   XY=    84.2988   YY=  1969.7499   ZY=     6.5905
   XZ=   -27.7453   YZ=   -30.9367   ZZ=  1810.0677
   Eigenvalues:  1809.1220  1964.8928  2449.8247
     71  Cl   Isotropic =   951.3964   Anisotropy =   603.1973
   XX=   715.7771   YX=    97.4003   ZX=    92.5286
   XY=   -44.7736   YY=   797.8961   ZY=    22.2867
   XZ=    89.6614   YZ=   -30.4001   ZZ=  1340.5159
   Eigenvalues:   695.8217   804.8396  1353.5279
     72  Cl   Isotropic =   848.4179   Anisotropy =   214.0657
   XX=   817.1654   YX=    85.1065   ZX=    41.0303
   XY=   119.7927   YY=   807.9607   ZY=    90.9615
   XZ=    42.7651   YZ=    32.6846   ZZ=   920.1276
   Eigenvalues:   708.6769   845.4485   991.1283
     73  Cl   Isotropic =   831.8845   Anisotropy =   238.6129
   XX=   815.5685   YX=    35.8814   ZX=   -83.1497
   XY=    73.3328   YY=   753.9583   ZY=   -50.6629
   XZ=   -96.8248   YZ=   -21.4588   ZZ=   926.1268
   Eigenvalues:   720.5429   784.1509   990.9598
     74  C    Isotropic =   118.5670   Anisotropy =   205.0159
   XX=   228.1182   YX=    73.4423   ZX=    -7.2769
   XY=    32.2219   YY=   148.6131   ZY=   -28.8237
   XZ=     1.4964   YZ=   -24.1105   ZZ=   -21.0302
   Eigenvalues:   -25.1731   125.6299   255.2443
     75  C    Isotropic =   118.1183   Anisotropy =   234.4928
   XX=   166.8908   YX=    91.7944   ZX=   -35.5119
   XY=   111.2359   YY=   174.5199   ZY=    -9.5123
   XZ=     2.8703   YZ=   -24.9621   ZZ=    12.9440
   Eigenvalues:    10.7887    69.1193   274.4468
     76  C    Isotropic =   113.4934   Anisotropy =   236.6572
   XX=   165.8590   YX=    99.2283   ZX=     6.3060
   XY=   106.6330   YY=   163.7710   ZY=   -37.3720
   XZ=   -35.5191   YZ=   -19.0396   ZZ=    10.8502
   Eigenvalues:     5.6669    63.5485   271.2648
     77  C    Isotropic =    16.0814   Anisotropy =    64.6107
   XX=    39.2533   YX=    28.2928   ZX=   -43.1105
   XY=    -0.3303   YY=    12.8492   ZY=    41.3139
   XZ=    42.5525   YZ=    54.9708   ZZ=    -3.8582
   Eigenvalues:   -45.3830    34.4721    59.1553
     78  H    Isotropic =    19.4745   Anisotropy =    20.4868
   XX=    21.5842   YX=    -7.3164   ZX=     5.1745
   XY=   -17.9398   YY=    11.4099   ZY=    -0.6697
   XZ=     0.6064   YZ=    -7.8724   ZZ=    25.4293
   Eigenvalues:     2.7140    22.5771    33.1323
     79  C    Isotropic =    13.1187   Anisotropy =    65.2105
   XX=    34.9824   YX=    35.0708   ZX=    33.7658
   XY=   -19.3232   YY=   -25.5666   ZY=   -36.4406
   XZ=   -41.2181   YZ=   -51.6694   ZZ=    29.9402
   Eigenvalues:   -50.1877    32.9513    56.5924
     80  H    Isotropic =    19.9264   Anisotropy =    20.3081
   XX=    23.3012   YX=    -7.7944   ZX=    -2.9194
   XY=   -16.1215   YY=    15.9792   ZY=     3.9329
   XZ=     4.6443   YZ=    11.3722   ZZ=    20.4989
   Eigenvalues:     4.2986    22.0155    33.4652
     81  C    Isotropic =   -63.7651   Anisotropy =   131.2314
   XX=   -56.9302   YX=   -17.3839   ZX=     1.7669
   XY=  -113.2995   YY=  -153.6590   ZY=    28.2960
   XZ=    18.0446   YZ=    27.7400   ZZ=    19.2939
   Eigenvalues:  -190.7274   -24.2903    23.7225
     82  H    Isotropic =    22.7750   Anisotropy =     8.4676
   XX=    23.6530   YX=    -5.2199   ZX=     0.8786
   XY=    -6.2074   YY=    21.4696   ZY=     1.1947
   XZ=    -0.8144   YZ=    -2.5790   ZZ=    23.2023
   Eigenvalues:    16.7037    23.2012    28.4201
     83  H    Isotropic =    23.2779   Anisotropy =     7.9665
   XX=    24.3990   YX=    -4.8210   ZX=     0.6865
   XY=    -4.9674   YY=    22.7330   ZY=    -1.0027
   XZ=     2.7899   YZ=     3.3682   ZZ=    22.7018
   Eigenvalues:    17.7657    23.4792    28.5889
     84  H    Isotropic =    21.5902   Anisotropy =     6.2174
   XX=    20.4324   YX=    -5.7810   ZX=     0.7794
   XY=    -5.7815   YY=    19.4231   ZY=     0.6909
   XZ=     0.8665   YZ=     0.9444   ZZ=    24.9152
   Eigenvalues:    14.0015    25.0341    25.7352
 End of Minotr F.D. properties file   721 does not exist.
 End of Minotr F.D. properties file   722 does not exist.
 End of Minotr F.D. properties file   788 does not exist.
 Leave Link 1002 at Thu Dec 12 22:42:14 2019, MaxMem=  4026531840 cpu:    109464.4
 (Enter /scr/programs/g09/l601.exe)
 Copying SCF densities to generalized density rwf, IOpCl= 0 IROHF=0.

 **********************************************************************

            Population analysis using the SCF density.

 **********************************************************************

 Orbital symmetries:
       Occupied  (A) (A) (A) (A) (A) (A) (A) (A) (A) (A) (A) (A)
                 (A) (A) (A) (A) (A) (A) (A) (A) (A) (A) (A) (A)
                 (A) (A) (A) (A) (A) (A) (A) (A) (A) (A) (A) (A)
                 (A) (A) (A) (A) (A) (A) (A) (A) (A) (A) (A) (A)
                 (A) (A) (A) (A) (A) (A) (A) (A) (A) (A) (A) (A)
                 (A) (A) (A) (A) (A) (A) (A) (A) (A) (A) (A) (A)
[...]
 Alpha virt. eigenvalues --    1.50440   1.50873   1.51101   1.51473   1.51623
 Alpha virt. eigenvalues --    1.52208   1.52320   1.52504   1.53086   1.53256
 Alpha virt. eigenvalues --    1.53872   1.54058   1.54517   1.55273   1.55400
 Alpha virt. eigenvalues --    1.55674   1.56252   1.56346   1.56725   1.56859
 Alpha virt. eigenvalues --    1.57218   1.57751   1.58019   1.58491   1.58814
 Alpha virt. eigenvalues --    1.58960   1.59261   1.59636   1.59753   1.60144
 Alpha virt. eigenvalues --    1.60607   1.60834   1.61032   1.61182   1.61525
 Alpha virt. eigenvalues --    1.61866   1.62372   1.62499   1.62786   1.62959
 Alpha virt. eigenvalues --    1.63194   1.63273   1.63589   1.63929   1.64089
 Alpha virt. eigenvalues --    1.64421   1.64488   1.64991   1.65075   1.65322
 Alpha virt. eigenvalues --    1.65820   1.65947   1.66277   1.66470   1.66643
 Alpha virt. eigenvalues --    1.66892   1.67224   1.67480   1.67842   1.67992
 Alpha virt. eigenvalues --    1.68240   1.68529   1.68674   1.68749   1.68809
 Alpha virt. eigenvalues --    1.69037   1.69337   1.69734   1.69867   1.70076
 Alpha virt. eigenvalues --    1.70168   1.70302   1.70563   1.70832   1.70993
 Alpha virt. eigenvalues --    1.71429   1.71554   1.71809   1.71945   1.72164
 Alpha virt. eigenvalues --    1.72472   1.72728   1.73025   1.73165   1.73274
 Alpha virt. eigenvalues --    1.73567   1.73848   1.74114   1.74442   1.74876
 Alpha virt. eigenvalues --    1.75112   1.75260   1.75613   1.75938   1.76280
 Alpha virt. eigenvalues --    1.76395   1.77063   1.77270   1.78511   1.78711
 Alpha virt. eigenvalues --    1.79037   1.79132   1.79649   1.79887   1.80192
 Alpha virt. eigenvalues --    1.81124   1.81371   1.81973   1.82118   1.82805
 Alpha virt. eigenvalues --    1.83046   1.83622   1.84211   1.84341   1.84652
 Alpha virt. eigenvalues --    1.85392   1.85780   1.86322   1.86428   1.87135
 Alpha virt. eigenvalues --    1.87416   1.87842   1.88213   1.88341   1.88475
 Alpha virt. eigenvalues --    1.89041   1.89208   1.89383   1.89675   1.89848
 Alpha virt. eigenvalues --    1.90764   1.90848   1.91557   1.91810   1.92108
 Alpha virt. eigenvalues --    1.92834   1.92974   1.93352   1.93623   1.94185
 Alpha virt. eigenvalues --    1.94344   1.94615   1.94831   1.94904   1.95407
 Alpha virt. eigenvalues --    1.95641   1.95981   1.96354   1.96870   1.97452
 Alpha virt. eigenvalues --    1.97905   1.98284   1.98583   1.98968   1.99140
 Alpha virt. eigenvalues --    1.99332   2.00038   2.00296   2.00652   2.00950
 Alpha virt. eigenvalues --    2.01471   2.01668   2.01879   2.02108   2.02297
 Alpha virt. eigenvalues --    2.02905   2.03282   2.03573   2.04005   2.04118
 Alpha virt. eigenvalues --    2.04382   2.04760   2.05012   2.05410   2.05751
 Alpha virt. eigenvalues --    2.05951   2.06127   2.06381   2.06851   2.07192
 Alpha virt. eigenvalues --    2.07742   2.08018   2.08446   2.08772   2.08872
 Alpha virt. eigenvalues --    2.09098   2.09466   2.10201   2.10345   2.10422
 Alpha virt. eigenvalues --    2.10949   2.11018   2.11411   2.12287   2.12757
 Alpha virt. eigenvalues --    2.13090   2.13495   2.13896   2.14227   2.14426
 Alpha virt. eigenvalues --    2.14830   2.15303   2.15604   2.15760   2.16083
 Alpha virt. eigenvalues --    2.16499   2.16693   2.17277   2.17726   2.17861
 Alpha virt. eigenvalues --    2.18072   2.18649   2.18850   2.18919   2.19310
 Alpha virt. eigenvalues --    2.19544   2.19766   2.20409   2.20794   2.21160
 Alpha virt. eigenvalues --    2.21248   2.21309   2.22190   2.22443   2.22574
 Alpha virt. eigenvalues --    2.22877   2.23090   2.23603   2.24176   2.24479
 Alpha virt. eigenvalues --    2.25120   2.25343   2.26000   2.26642   2.26948
 Alpha virt. eigenvalues --    2.27115   2.27957   2.28149   2.28802   2.29572
 Alpha virt. eigenvalues --    2.29760   2.30417   2.30643   2.31012   2.31539
 Alpha virt. eigenvalues --    2.32134   2.32474   2.32558   2.32946   2.33499
 Alpha virt. eigenvalues --    2.33759   2.34099   2.34388   2.34757   2.34863
 Alpha virt. eigenvalues --    2.35475   2.35719   2.35822   2.35977   2.36771
 Alpha virt. eigenvalues --    2.37218   2.37997   2.38587   2.38835   2.39399
 Alpha virt. eigenvalues --    2.39532   2.39785   2.40082   2.40604   2.40748
 Alpha virt. eigenvalues --    2.41244   2.41472   2.41648   2.42152   2.42717
 Alpha virt. eigenvalues --    2.43035   2.43503   2.43785   2.44154   2.44541
 Alpha virt. eigenvalues --    2.45306   2.45807   2.46213   2.47160   2.47619
 Alpha virt. eigenvalues --    2.48360   2.48649   2.48972   2.49844   2.49958
 Alpha virt. eigenvalues --    2.50491   2.50932   2.51527   2.51992   2.52948
 Alpha virt. eigenvalues --    2.53640   2.54359   2.54686   2.55749   2.56059
 Alpha virt. eigenvalues --    2.56248   2.56687   2.57081   2.58182   2.58457
 Alpha virt. eigenvalues --    2.58799   2.59060   2.59269   2.59985   2.60362
 Alpha virt. eigenvalues --    2.60701   2.61554   2.61672   2.62377   2.63136
 Alpha virt. eigenvalues --    2.63212   2.63676   2.64004   2.64456   2.65155
 Alpha virt. eigenvalues --    2.65342   2.65468   2.66446   2.66761   2.67216
 Alpha virt. eigenvalues --    2.67646   2.68095   2.68178   2.68663   2.69611
 Alpha virt. eigenvalues --    2.70312   2.70669   2.71052   2.71225   2.71491
 Alpha virt. eigenvalues --    2.71808   2.72241   2.72544   2.73133   2.73516
 Alpha virt. eigenvalues --    2.73770   2.74352   2.74736   2.75152   2.75198
 Alpha virt. eigenvalues --    2.76249   2.76610   2.76946   2.77261   2.77749
 Alpha virt. eigenvalues --    2.78099   2.78400   2.78844   2.79281   2.79709
 Alpha virt. eigenvalues --    2.80702   2.81143   2.81746   2.82483   2.83759
 Alpha virt. eigenvalues --    2.84500   2.85335   2.85864   2.86004   2.86164
 Alpha virt. eigenvalues --    2.86467   2.86903   2.87518   2.88202   2.89290
 Alpha virt. eigenvalues --    2.89826   2.90758   2.91118   2.91346   2.91747
 Alpha virt. eigenvalues --    2.92248   2.93493   2.93738   2.94516   2.94705
 Alpha virt. eigenvalues --    2.95035   2.95311   2.95986   2.96249   2.96510
 Alpha virt. eigenvalues --    2.96862   2.98036   2.98367   2.98737   2.99336
 Alpha virt. eigenvalues --    2.99541   2.99857   2.99962   3.00120   3.00434
 Alpha virt. eigenvalues --    3.00742   3.01106   3.01716   3.01988   3.02336
 Alpha virt. eigenvalues --    3.02538   3.03526   3.06474   3.06882   3.07191
 Alpha virt. eigenvalues --    3.07792   3.08648   3.09420   3.09985   3.10248
 Alpha virt. eigenvalues --    3.11836   3.13450   3.13893   3.14162   3.14793
 Alpha virt. eigenvalues --    3.14961   3.15261   3.15462   3.15799   3.15957
 Alpha virt. eigenvalues --    3.16600   3.17103   3.17928   3.18481   3.19293
 Alpha virt. eigenvalues --    3.19378   3.21327   3.21450   3.22155   3.22571
 Alpha virt. eigenvalues --    3.22697   3.23655   3.24077   3.24773   3.25269
 Alpha virt. eigenvalues --    3.25736   3.26242   3.26978   3.27542   3.30524
 Alpha virt. eigenvalues --    3.33029   3.35254   3.35490   3.36695   3.37825
 Alpha virt. eigenvalues --    3.39033   3.43197   3.44001   3.45777   3.46864
 Alpha virt. eigenvalues --    3.47829   3.48254   3.49012   3.49546   3.50059
 Alpha virt. eigenvalues --    3.50978   3.52718   3.52852   3.53557   3.54226
 Alpha virt. eigenvalues --    3.54521   3.54676   3.56705   3.59978   3.73393
 Alpha virt. eigenvalues --    3.74785   3.77491   3.91685   3.93329   3.97852
 Alpha virt. eigenvalues --    3.99836   4.00778   4.05106   4.06765   4.14146
 Alpha virt. eigenvalues --    4.15758   4.17320   4.18921   4.19591   4.21029
 Alpha virt. eigenvalues --    4.21835   4.22243   4.24074   4.24428   4.24942
 Alpha virt. eigenvalues --    4.26695   4.28154   4.29800   4.30686   4.32323
 Alpha virt. eigenvalues --    4.32967   4.33852   4.34026   4.35992   4.36245
 Alpha virt. eigenvalues --    4.37706   4.38410   4.39305   4.40341   4.42259
 Alpha virt. eigenvalues --    4.42998   4.44901   4.46376   4.46959   4.49092
 Alpha virt. eigenvalues --    4.49501   4.50772   4.53165   4.54364   4.56217
 Alpha virt. eigenvalues --    4.57846   4.77463   4.77931   4.78499   4.79443
 Alpha virt. eigenvalues --    4.79692   4.80021   4.81042   5.59779   5.64396
 Alpha virt. eigenvalues --    5.80126   5.90830   6.11447   6.12808   6.60410
 Alpha virt. eigenvalues --    6.63478   6.63693   6.65730   6.66170   6.68055
 Alpha virt. eigenvalues --    6.69020   6.73875   6.78005   6.78995   6.80103
 Alpha virt. eigenvalues --    6.81184   6.82644   6.83645   6.84880   6.87806
 Alpha virt. eigenvalues --    6.88103   6.88846   6.89894   6.91860   6.94117
 Alpha virt. eigenvalues --    6.95559   6.97336   6.98351   6.99288   7.00643
 Alpha virt. eigenvalues --    7.03604   7.05442   7.08198   7.08920   7.12890
 Alpha virt. eigenvalues --    7.14301   7.15353   7.20900   7.25483   7.26674
 Alpha virt. eigenvalues --    7.26749   7.28148   7.29256   7.30781   7.76882
 Alpha virt. eigenvalues --    7.79820   7.79939   7.81291   7.83410   7.86134
 Alpha virt. eigenvalues --    8.48427   8.49567   8.49849   8.50341   8.50821
 Alpha virt. eigenvalues --    8.51982   8.54607   8.57520   8.59962   9.02334
 Alpha virt. eigenvalues --    9.86630   9.88825   9.93128   9.94417   9.96401
 Alpha virt. eigenvalues --    9.98521  10.01395  10.03771  10.06095  10.07757
 Alpha virt. eigenvalues --   10.09232  10.10674  10.16846  10.25839  14.21992
 Alpha virt. eigenvalues --   14.24948  15.68361  16.75683  16.90304  16.98330
 Alpha virt. eigenvalues --   17.03088  17.03736  17.04481  17.04813  17.04928
 Alpha virt. eigenvalues --   17.05307  17.05638  17.06275  17.06796  17.07219
 Alpha virt. eigenvalues --   17.08153  17.08695  17.09175  17.09618  17.11328
 Alpha virt. eigenvalues --   17.12144  17.13367  17.14800  17.16404  17.17612
 Alpha virt. eigenvalues --   17.18391  17.20036  17.21866  17.22207  17.24011
 Alpha virt. eigenvalues --   17.26464  17.27816  17.29074  17.30376  17.31768
 Alpha virt. eigenvalues --   17.32556  17.32751  17.33535  17.33998  17.34544
 Alpha virt. eigenvalues --   17.34889  17.36504  17.37697  17.38951  17.40806
 Alpha virt. eigenvalues --   17.41700  17.44376  21.11543  21.32098  21.34038
 Alpha virt. eigenvalues --   25.56595  25.59779  25.72839  26.17008  31.71535
 Alpha virt. eigenvalues --   31.77131  31.77588  31.78184  31.83612  42.97360
 Alpha virt. eigenvalues --   43.01588  43.03513  43.05100  43.15191  61.91571
 Alpha virt. eigenvalues --   61.94434  63.05003  78.07941  78.21215  78.35942
 Alpha virt. eigenvalues --   82.20659  86.21632  86.39036  86.40350  89.19488
 Alpha virt. eigenvalues --   89.29798  89.30068  89.30390  89.31336  89.31609
 Alpha virt. eigenvalues --   89.32092  89.33011  89.33242  89.33412  89.34677
 Alpha virt. eigenvalues --   89.35071  89.35698  89.36245  89.37396  89.38516
 Alpha virt. eigenvalues --   89.38913  89.40464  89.41687  89.42350  89.44427
 Alpha virt. eigenvalues --   89.45008  89.47164  89.48072  89.49984  89.52422
 Alpha virt. eigenvalues --   89.53807  89.55411  89.56057  89.57915  89.60098
 Alpha virt. eigenvalues --   89.60633  89.60732  89.61173  89.62298  89.62474
 Alpha virt. eigenvalues --   89.63256  89.64652  89.65282  89.66978  89.68566
 Alpha virt. eigenvalues --   89.70409 121.89608 121.91907 122.01181 239.22542
 Alpha virt. eigenvalues --  257.31782 332.24901 332.27924 428.80285 428.93821
 Alpha virt. eigenvalues --  428.94961 431.69632 431.83561 431.99021 590.25826
 Alpha virt. eigenvalues --  590.27599 590.34702 772.99321 839.622332068.59265
 Alpha virt. eigenvalues -- 2529.996315495.39252******************************
          Condensed to atoms (all electrons):
 Mulliken charges:
               1
     1  Pt   0.506997
     2  P    1.261207
     3  P    0.996378
     4  C   -0.839961
     5  C    0.261435
     6  C    0.308956
     7  C    0.041773
     8  H    0.099444
     9  C   -0.198302
    10  H    0.073234
    11  C   -0.613016
    12  H    0.145352
    13  H    0.140073
    14  H    0.155633
    15  C   -0.890265
    16  C    0.634546
    17  C    0.230908
    18  C   -0.078211
    19  H    0.059720
    20  C   -0.239263
    21  H    0.097560
    22  C   -0.569821
    23  H    0.140820
    24  H    0.143545
    25  H    0.154520
    26  C   -1.040832
    27  C    0.551152
    28  C    0.234064
    29  C   -0.050439
    30  H    0.072620
    31  C   -0.143492
    32  H    0.072118
    33  C   -0.554626
    34  H    0.125836
    35  H    0.135896
    36  H    0.147360
    37  C   -1.194392
    38  C    0.367367
    39  C    0.405393
    40  C   -0.132828
    41  H    0.083754
    42  C    0.004807
    43  H    0.094974
    44  C   -0.525495
    45  H    0.140336
    46  H    0.139809
    47  H    0.148770
    48  C   -0.839613
    49  C    0.459563
    50  C    0.446876
    51  C   -0.233587
    52  H    0.061109
    53  C   -0.045253
    54  H    0.060564
    55  C   -0.536938
    56  H    0.128493
    57  H    0.136765
    58  H    0.151219
    59  C   -0.797463
    60  C    0.178753
    61  C    0.583767
    62  C   -0.022798
    63  H    0.095514
    64  C   -0.202484
    65  H    0.034218
    66  C   -0.558778
    67  H    0.142452
    68  H    0.127608
    69  H    0.149720
    70  Sn   0.393981
    71  Cl  -0.382265
    72  Cl  -0.263039
    73  Cl  -0.276256
    74  C   -0.159728
    75  C   -0.026328
    76  C    0.032846
    77  C   -0.116714
    78  H    0.133476
    79  C   -0.105434
    80  H    0.132055
    81  C   -0.464491
    82  H    0.159128
    83  H    0.158660
    84  H    0.158985
 Sum of Mulliken charges =   0.00000
 Mulliken charges with hydrogens summed into heavy atoms:
               1
     1  Pt   0.506997
     2  P    1.261207
     3  P    0.996378
     4  C   -0.839961
     5  C    0.360878
     6  C    0.382190
     7  C    0.187125
     9  C   -0.058228
    11  C   -0.457383
    15  C   -0.890265
    16  C    0.694266
    17  C    0.328468
    18  C    0.062609
    20  C   -0.095718
    22  C   -0.415301
    26  C   -1.040832
    27  C    0.623772
    28  C    0.306183
    29  C    0.075396
    31  C   -0.007596
    33  C   -0.407266
    37  C   -1.194392
    38  C    0.451122
    39  C    0.500368
    40  C    0.007508
    42  C    0.144616
    44  C   -0.376725
    48  C   -0.839613
    49  C    0.520672
    50  C    0.507439
    51  C   -0.105094
    53  C    0.091512
    55  C   -0.385719
    59  C   -0.797463
    60  C    0.274267
    61  C    0.617986
    62  C    0.119654
    64  C   -0.074876
    66  C   -0.409057
    70  Sn   0.393981
    71  Cl  -0.382265
    72  Cl  -0.263039
    73  Cl  -0.276256
    74  C   -0.159728
    75  C    0.107148
    76  C    0.164902
    77  C    0.042414
    79  C    0.053226
    81  C   -0.305505
 Electronic spatial extent (au):  <R**2>=          32407.3875
 Charge=              0.0000 electrons
 Dipole moment (field-independent basis, Debye):
    X=            -16.0342    Y=              2.0423    Z=              2.0812  Tot=             16.2972
 Quadrupole moment (field-independent basis, Debye-Ang):
   XX=           -360.8963   YY=           -333.1283   ZZ=           -322.6478
   XY=            -12.4880   XZ=              4.5183   YZ=             -1.7386
 Traceless Quadrupole moment (field-independent basis, Debye-Ang):
   XX=            -22.0055   YY=              5.7625   ZZ=             16.2430
   XY=            -12.4880   XZ=              4.5183   YZ=             -1.7386
 Octapole moment (field-independent basis, Debye-Ang**2):
  XXX=            -42.3402  YYY=            -12.5317  ZZZ=             11.7583  XYY=              8.6878
  XXY=            -34.0720  XXZ=             17.3982  XZZ=            -54.0069  YZZ=            -49.8419
  YYZ=            -13.9667  XYZ=              7.6546
 Hexadecapole moment (field-independent basis, Debye-Ang**3):
 XXXX=         -20089.2516 YYYY=         -14195.3892 ZZZZ=          -7814.3490 XXXY=           -976.8909
 XXXZ=             -0.0894 YYYX=            377.0062 YYYZ=             65.2276 ZZZX=             86.8109
 ZZZY=             18.6677 XXYY=          -5283.0652 XXZZ=          -4590.7227 YYZZ=          -3583.6026
 XXYZ=           -178.8154 YYXZ=            -60.9247 ZZXY=            -84.5107
 N-N= 1.324956266406D+04 E-N=-8.981893052790D+04  KE= 2.636616170453D+04
 Calculating spin-rotation constants.
 Leave Link  601 at Thu Dec 12 22:59:27 2019, MaxMem=  4026531840 cpu:      2696.0
 (Enter /scr/programs/g09/l9999.exe)
 1\1\GINC-NEQC27\SP\RPBEPBE\Gen\C42H35Cl3P2Pt1Sn1\GUEST\12-Dec-2019\0\\
 #PBEPBE/gen scf=(maxcycle=500,conver=3) NMR=GIAO Scrf=(solvent=Dichlor
 omethane)\\estrutura 97\\0,1\Pt,0,-0.197284,0.297954,-0.151594\P,0,1.9
 80155,1.470409,-0.079066\P,0,0.502499,-1.88749,0.073125\C,0,2.12783,2.
 389523,1.510592\C,0,3.145708,3.347604,1.699697\C,0,1.268481,2.086248,2
 .578068\C,0,3.271856,4.010128,2.92261\H,0,3.846808,3.580536,0.89385\C,
 0,1.412173,2.735558,3.809668\H,0,0.495219,1.326574,2.454089\C,0,2.4039
 81,3.705427,3.980274\H,0,4.053586,4.766983,3.050974\H,0,0.746371,2.478
 339,4.635635\H,0,2.510038,4.219521,4.938863\C,0,1.979819,2.726754,-1.4
 35711\C,0,1.921379,2.279974,-2.768784\C,0,1.94968,4.109215,-1.189322\C
 ,0,1.895169,3.190157,-3.828205\H,0,1.874209,1.213495,-2.994673\C,0,1.9
 17948,5.019165,-2.251589\H,0,1.924125,4.489425,-0.167564\C,0,1.9027,4.
 56483,-3.572217\H,0,1.857303,2.819699,-4.855258\H,0,1.896283,6.090807,
 -2.038106\H,0,1.88011,5.278502,-4.399334\C,0,3.651249,0.662421,-0.1784
 48\C,0,4.258263,0.221687,1.012547\C,0,4.335676,0.468267,-1.391868\C,0,
 5.516068,-0.384255,0.990031\H,0,3.757439,0.359994,1.971493\C,0,5.59241
 5,-0.143089,-1.411436\H,0,3.907587,0.80617,-2.334822\C,0,6.187913,-0.5
 71447,-0.2219\H,0,5.972236,-0.707589,1.928825\H,0,6.107893,-0.278935,-
 2.366083\H,0,7.174196,-1.042206,-0.239516\C,0,-0.724589,-3.269818,-0.0
 483\C,0,-0.976986,-4.163881,1.004198\C,0,-1.370641,-3.464636,-1.280907
 \C,0,-1.868036,-5.227212,0.826861\H,0,-0.483432,-4.040697,1.968042\C,0
 ,-2.261186,-4.525214,-1.452823\H,0,-1.186913,-2.785203,-2.114671\C,0,-
 2.513799,-5.409618,-0.39806\H,0,-2.058119,-5.91345,1.656878\H,0,-2.763
 265,-4.655739,-2.413838\H,0,-3.211591,-6.23999,-0.532623\C,0,1.252709,
 -2.095453,1.74197\C,0,2.572214,-2.50476,1.974633\C,0,0.429756,-1.78397
 ,2.843141\C,0,3.055368,-2.616231,3.284383\H,0,3.242312,-2.724033,1.143
 524\C,0,0.915948,-1.899466,4.146723\H,0,-0.599752,-1.459807,2.684384\C
 ,0,2.23151,-2.316983,4.37107\H,0,4.087989,-2.932045,3.450427\H,0,0.264
 291,-1.65879,4.990645\H,0,2.613424,-2.402849,5.391617\C,0,1.669944,-2.
 423582,-1.249787\C,0,2.389773,-3.630278,-1.162275\C,0,1.698248,-1.7006
 31,-2.453435\C,0,3.159211,-4.071097,-2.242245\H,0,2.340096,-4.245538,-
 0.261768\C,0,2.453278,-2.154445,-3.540151\H,0,1.100251,-0.791636,-2.54
 8147\C,0,3.194199,-3.333814,-3.432321\H,0,3.723398,-5.003486,-2.157831
 \H,0,2.455942,-1.584187,-4.472706\H,0,3.788441,-3.68782,-4.278627\Sn,0
 ,-2.817724,-0.085313,-0.131488\Cl,0,-1.110292,2.561497,-0.315491\Cl,0,
 -3.56332,-1.648966,1.617398\Cl,0,-3.626849,-1.003696,-2.266138\C,0,-4.
 379681,1.4106,0.137409\C,0,-4.869786,1.716755,1.416338\C,0,-4.880738,2
 .107594,-0.974136\C,0,-5.838528,2.71473,1.58277\H,0,-4.510369,1.16897,
 2.292347\C,0,-5.850291,3.102386,-0.807311\H,0,-4.526485,1.869593,-1.98
 097\C,0,-6.327326,3.411194,0.471639\H,0,-6.214181,2.946022,2.583751\H,
 0,-6.234023,3.637642,-1.681193\H,0,-7.082269,4.190954,0.601812\\Versio
 n=EM64L-G09RevD.01\State=1-A\HF=-26773.7022624\RMSD=2.229e-04\Dipole=6
 .3083596,-0.8035205,0.8187944\Quadrupole=-16.3605496,4.2842725,12.0762
 771,-9.2845556,-3.3592806,1.292598\PG=C01 [X(C42H35Cl3P2Pt1Sn1)]\\@


 ALMOST ANYTHING IS EASIER TO GET INTO THAN OUT OF.

                         -- AGNES ALLEN'S LAW FROM
                PAUL DICKSON'S "THE OFFICIAL RULES"
 Job cpu time:       1 days 21 hours 46 minutes  6.7 seconds.
 File lengths (MBytes):  RWF=   2426 Int=      0 D2E=      0 Chk=    173 Scr=      1
 Normal termination of Gaussian 09 at Thu Dec 12 22:59:28 2019.
