 Entering Gaussian System, Link 0=g09
 Input=estrutura57.com
 Output=estrutura57.log
 Initial command:
 /home/scr/programs/g09/l1.exe /home/scr/guest1/Gau-1792.inp -scrdir=/home/scr/guest1/
 Entering Link 1 = /home/scr/programs/g09/l1.exe PID=      1793.
  
 Copyright (c) 1988,1990,1992,1993,1995,1998,2003,2009, Gaussian, Inc.
                  All Rights Reserved.
  
 This is part of the Gaussian(R) 09 program.  It is based on
 the Gaussian(R) 03 system (copyright 2003, Gaussian, Inc.),
 the Gaussian(R) 98 system (copyright 1998, Gaussian, Inc.),
 the Gaussian(R) 94 system (copyright 1995, Gaussian, Inc.),
 the Gaussian 92(TM) system (copyright 1992, Gaussian, Inc.),
 the Gaussian 90(TM) system (copyright 1990, Gaussian, Inc.),
 the Gaussian 88(TM) system (copyright 1988, Gaussian, Inc.),
 the Gaussian 86(TM) system (copyright 1986, Carnegie Mellon
 University), and the Gaussian 82(TM) system (copyright 1983,
 Carnegie Mellon University). Gaussian is a federally registered
 trademark of Gaussian, Inc.
  
 This software contains proprietary and confidential information,
 including trade secrets, belonging to Gaussian, Inc.
  
 This software is provided under written license and may be
 used, copied, transmitted, or stored only in accord with that
 written license.
  
 The following legend is applicable only to US Government
 contracts under FAR:
  
                    RESTRICTED RIGHTS LEGEND
  
 Use, reproduction and disclosure by the US Government is
 subject to restrictions as set forth in subparagraphs (a)
 and (c) of the Commercial Computer Software - Restricted
 Rights clause in FAR 52.227-19.
  
 Gaussian, Inc.
 340 Quinnipiac St., Bldg. 40, Wallingford CT 06492
  
  
 ---------------------------------------------------------------
 Warning -- This program may not be used in any manner that
 competes with the business of Gaussian, Inc. or will provide
 assistance to any competitor of Gaussian, Inc.  The licensee
 of this program is prohibited from giving any competitor of
 Gaussian, Inc. access to this program.  By using this program,
 the user acknowledges that Gaussian, Inc. is engaged in the
 business of creating and licensing software in the field of
 computational chemistry and represents and warrants to the
 licensee that it is not a competitor of Gaussian, Inc. and that
 it will not use this program in any manner prohibited above.
 ---------------------------------------------------------------
  

 Cite this work as:
 Gaussian 09, Revision A.02,
 M. J. Frisch, G. W. Trucks, H. B. Schlegel, G. E. Scuseria, 
 M. A. Robb, J. R. Cheeseman, G. Scalmani, V. Barone, B. Mennucci, 
 G. A. Petersson, H. Nakatsuji, M. Caricato, X. Li, H. P. Hratchian, 
 A. F. Izmaylov, J. Bloino, G. Zheng, J. L. Sonnenberg, M. Hada, 
 M. Ehara, K. Toyota, R. Fukuda, J. Hasegawa, M. Ishida, T. Nakajima, 
 Y. Honda, O. Kitao, H. Nakai, T. Vreven, J. A. Montgomery, Jr., 
 J. E. Peralta, F. Ogliaro, M. Bearpark, J. J. Heyd, E. Brothers, 
 K. N. Kudin, V. N. Staroverov, R. Kobayashi, J. Normand, 
 K. Raghavachari, A. Rendell, J. C. Burant, S. S. Iyengar, J. Tomasi, 
 M. Cossi, N. Rega, J. M. Millam, M. Klene, J. E. Knox, J. B. Cross, 
 V. Bakken, C. Adamo, J. Jaramillo, R. Gomperts, R. E. Stratmann, 
 O. Yazyev, A. J. Austin, R. Cammi, C. Pomelli, J. W. Ochterski, 
 R. L. Martin, K. Morokuma, V. G. Zakrzewski, G. A. Voth, 
 P. Salvador, J. J. Dannenberg, S. Dapprich, A. D. Daniels, 
 O. Farkas, J. B. Foresman, J. V. Ortiz, J. Cioslowski, 
 and D. J. Fox, Gaussian, Inc., Wallingford CT, 2009.
 
 ******************************************
 Gaussian 09:  EM64L-G09RevA.02 11-Jun-2009
                15-Jun-2019 
 ******************************************
 %mem=100Gb
 %nproc=32
 Will use up to   32 processors via shared memory.
 ----------------------------------------------------------------------
 #PBEPBE/gen scf=(maxcycle=500,conver=4) NMR=GIAO Scrf=(solvent=Dichlor
 omethane)
 ----------------------------------------------------------------------
 1/38=1/1;
 2/12=2,17=6,18=5,40=1/2;
 3/5=7,11=2,16=1,25=1,30=1,70=2201,72=9,74=1009/1,2,8,3;
 4//1;
 5/5=2,6=4,7=500,38=5,53=9/2;
 8/6=1,10=90,11=11/1;
 10/13=100,45=16/2;
 6/7=2,8=2,9=2,10=2,28=1/1;
 99/9=1/99;
 Leave Link    1 at Sat Jun 15 12:01:35 2019, MaxMem=13421772800 cpu:       2.9
 (Enter /home/scr/programs/g09/l101.exe)
 ------------
 estrutura 57
 ------------
 Symbolic Z-matrix:
 Charge =  0 Multiplicity = 1
 P                     2.21518  -1.03953  -0.32384 
 P                    -2.44173  -0.45158   0.53782 
 C                     3.42703   0.30535  -0.23241 
 C                     4.31784   0.06578   0.76006 
 C                     4.09861  -1.23225   1.47032 
 C                     3.0509   -1.94899   0.99492 
 C                     5.43467   0.9879    1.14956 
 C                     4.97943  -1.65591   2.60838 
 C                    -3.43632   0.48432  -0.65291 
 C                    -4.28601  -0.34416  -1.30707 
 C                    -4.21731  -1.76842  -0.8525 
 C                    -3.31066  -1.98699   0.12922 
 C                    -5.22694   0.08109  -2.39529 
 C                    -5.08878  -2.82516  -1.46494 
 H                     3.42417   1.18701  -0.87285 
 H                     2.69952  -2.89911   1.39388 
 H                     6.41238   0.48433   1.06699 
 H                     5.45158   1.88576   0.51658 
 H                     5.33217   1.30851   2.20018 
 H                     4.94759  -0.91944   3.42775 
 H                     4.67391  -2.63141   3.00876 
 H                     6.03249  -1.72631   2.28987 
 H                    -3.32552   1.55073  -0.84494 
 H                    -3.08353  -2.95258   0.57657 
 H                    -6.27409  -0.12499  -2.11511 
 H                    -5.13152   1.15497  -2.61047 
 H                    -5.03462  -0.47835  -3.32717 
 H                    -4.88302  -2.93163  -2.54379 
 H                    -4.9303   -3.80139  -0.98608 
 H                    -6.15572  -2.56179  -1.37273 
 Pt                   -0.09259  -0.59024   0.14748 
 C                    -2.93797   0.06625   2.30219 
 C                     2.47902  -1.9343   -1.9896 
 Sn                    0.2137    1.94084  -0.3484 
 Cl                    1.38506   3.08595   1.4292 
 Cl                   -1.59904   3.53069  -0.62659 
 Cl                    1.51028   2.66198  -2.27119 
 Cl                   -0.22727  -2.90785   0.91301 
 C                     1.73868  -1.13356  -3.07561 
 H                     0.65309  -1.1054   -2.88494 
 H                     2.09803  -0.09524  -3.15096 
 H                     1.9013   -1.61947  -4.05252 
 C                     3.98496  -1.99968  -2.29981 
 H                     4.12787  -2.56445  -3.23637 
 H                     4.42663  -1.00043  -2.43636 
 H                     4.54401  -2.52215  -1.50639 
 C                     1.90241  -3.35761  -1.9005 
 H                     2.43077  -3.9724   -1.1555 
 H                     0.8355   -3.3536   -1.64064 
 H                     2.01995  -3.84423  -2.88435 
 C                    -2.35216  -0.9605    3.28761 
 H                    -2.76549  -1.96817   3.12892 
 H                    -1.25674  -1.0239    3.2095 
 H                    -2.60556  -0.64999   4.31518 
 C                    -2.3522    1.46001   2.58738 
 H                    -1.25143   1.45162   2.5831 
 H                    -2.69756   2.21802   1.86817 
 H                    -2.67377   1.78321   3.59131 
 C                    -4.47119   0.1024    2.41576 
 H                    -4.74467   0.36205   3.45218 
 H                    -4.91483   0.85921   1.752 
 H                    -4.92475  -0.87265   2.18311 
 
 NAtoms=     62 NQM=     62 NQMF=      0 NMic=      0 NMicF=      0 NTot=     62.
                    Isotopes and Nuclear Properties:
 (Nuclear quadrupole moments (NQMom) in fm**2, nuclear magnetic moments (NMagM)
  in nuclear magnetons)

  Atom         1           2           3           4           5           6           7           8           9          10
 IAtWgt=          31          31          12          12          12          12          12          12          12          12
 AtmWgt=  30.9737634  30.9737634  12.0000000  12.0000000  12.0000000  12.0000000  12.0000000  12.0000000  12.0000000  12.0000000
 NucSpn=           1           1           0           0           0           0           0           0           0           0
 AtZEff=   0.0000000   0.0000000   0.0000000   0.0000000   0.0000000   0.0000000   0.0000000   0.0000000   0.0000000   0.0000000
 NQMom=    0.0000000   0.0000000   0.0000000   0.0000000   0.0000000   0.0000000   0.0000000   0.0000000   0.0000000   0.0000000
 NMagM=    1.1316000   1.1316000   0.0000000   0.0000000   0.0000000   0.0000000   0.0000000   0.0000000   0.0000000   0.0000000

  Atom        11          12          13          14          15          16          17          18          19          20
 IAtWgt=          12          12          12          12           1           1           1           1           1           1
 AtmWgt=  12.0000000  12.0000000  12.0000000  12.0000000   1.0078250   1.0078250   1.0078250   1.0078250   1.0078250   1.0078250
 NucSpn=           0           0           0           0           1           1           1           1           1           1
 AtZEff=   0.0000000   0.0000000   0.0000000   0.0000000   0.0000000   0.0000000   0.0000000   0.0000000   0.0000000   0.0000000
 NQMom=    0.0000000   0.0000000   0.0000000   0.0000000   0.0000000   0.0000000   0.0000000   0.0000000   0.0000000   0.0000000
 NMagM=    0.0000000   0.0000000   0.0000000   0.0000000   2.7928460   2.7928460   2.7928460   2.7928460   2.7928460   2.7928460

  Atom        21          22          23          24          25          26          27          28          29          30
 IAtWgt=           1           1           1           1           1           1           1           1           1           1
 AtmWgt=   1.0078250   1.0078250   1.0078250   1.0078250   1.0078250   1.0078250   1.0078250   1.0078250   1.0078250   1.0078250
 NucSpn=           1           1           1           1           1           1           1           1           1           1
 AtZEff=   0.0000000   0.0000000   0.0000000   0.0000000   0.0000000   0.0000000   0.0000000   0.0000000   0.0000000   0.0000000
 NQMom=    0.0000000   0.0000000   0.0000000   0.0000000   0.0000000   0.0000000   0.0000000   0.0000000   0.0000000   0.0000000
 NMagM=    2.7928460   2.7928460   2.7928460   2.7928460   2.7928460   2.7928460   2.7928460   2.7928460   2.7928460   2.7928460

  Atom        31          32          33          34          35          36          37          38          39          40
 IAtWgt=         195          12          12         118          35          35          35          35          12           1
 AtmWgt= 194.9648000  12.0000000  12.0000000 117.9018000  34.9688527  34.9688527  34.9688527  34.9688527  12.0000000   1.0078250
 NucSpn=           1           0           0           0           3           3           3           3           0           1
 AtZEff=   0.0000000   0.0000000   0.0000000   0.0000000   0.0000000   0.0000000   0.0000000   0.0000000   0.0000000   0.0000000
 NQMom=    0.0000000   0.0000000   0.0000000   0.0000000  -8.1650000  -8.1650000  -8.1650000  -8.1650000   0.0000000   0.0000000
 NMagM=    0.6095000   0.0000000   0.0000000   0.0000000   0.8218740   0.8218740   0.8218740   0.8218740   0.0000000   2.7928460

  Atom        41          42          43          44          45          46          47          48          49          50
 IAtWgt=           1           1          12           1           1           1          12           1           1           1
 AtmWgt=   1.0078250   1.0078250  12.0000000   1.0078250   1.0078250   1.0078250  12.0000000   1.0078250   1.0078250   1.0078250
 NucSpn=           1           1           0           1           1           1           0           1           1           1
 AtZEff=   0.0000000   0.0000000   0.0000000   0.0000000   0.0000000   0.0000000   0.0000000   0.0000000   0.0000000   0.0000000
 NQMom=    0.0000000   0.0000000   0.0000000   0.0000000   0.0000000   0.0000000   0.0000000   0.0000000   0.0000000   0.0000000
 NMagM=    2.7928460   2.7928460   0.0000000   2.7928460   2.7928460   2.7928460   0.0000000   2.7928460   2.7928460   2.7928460

  Atom        51          52          53          54          55          56          57          58          59          60
 IAtWgt=          12           1           1           1          12           1           1           1          12           1
 AtmWgt=  12.0000000   1.0078250   1.0078250   1.0078250  12.0000000   1.0078250   1.0078250   1.0078250  12.0000000   1.0078250
 NucSpn=           0           1           1           1           0           1           1           1           0           1
 AtZEff=   0.0000000   0.0000000   0.0000000   0.0000000   0.0000000   0.0000000   0.0000000   0.0000000   0.0000000   0.0000000
 NQMom=    0.0000000   0.0000000   0.0000000   0.0000000   0.0000000   0.0000000   0.0000000   0.0000000   0.0000000   0.0000000
 NMagM=    0.0000000   2.7928460   2.7928460   2.7928460   0.0000000   2.7928460   2.7928460   2.7928460   0.0000000   2.7928460

  Atom        61          62
 IAtWgt=           1           1
 AtmWgt=   1.0078250   1.0078250
 NucSpn=           1           1
 AtZEff=   0.0000000   0.0000000
 NQMom=    0.0000000   0.0000000
 NMagM=    2.7928460   2.7928460
 Leave Link  101 at Sat Jun 15 12:01:35 2019, MaxMem=13421772800 cpu:       2.8
 (Enter /home/scr/programs/g09/l202.exe)
 Stoichiometry    C20H34Cl4P2PtSn
 Framework group  C1[X(C20H34Cl4P2PtSn)]
 Deg. of freedom   180
 Full point group                 C1      NOp   1
 Largest Abelian subgroup         C1      NOp   1
 Largest concise Abelian subgroup C1      NOp   1
                         Standard orientation:                         
 ---------------------------------------------------------------------
 Center     Atomic      Atomic             Coordinates (Angstroms)
 Number     Number       Type             X           Y           Z
 ---------------------------------------------------------------------
      1         15           0        2.215184   -1.039529   -0.323836
      2         15           0       -2.441729   -0.451579    0.537821
      3          6           0        3.427028    0.305351   -0.232405
      4          6           0        4.317838    0.065775    0.760060
      5          6           0        4.098611   -1.232247    1.470315
      6          6           0        3.050897   -1.948987    0.994915
      7          6           0        5.434674    0.987903    1.149565
      8          6           0        4.979432   -1.655907    2.608382
      9          6           0       -3.436322    0.484315   -0.652909
     10          6           0       -4.286010   -0.344160   -1.307073
     11          6           0       -4.217306   -1.768415   -0.852502
     12          6           0       -3.310657   -1.986989    0.129224
     13          6           0       -5.226945    0.081094   -2.395285
     14          6           0       -5.088784   -2.825163   -1.464937
     15          1           0        3.424167    1.187005   -0.872845
     16          1           0        2.699519   -2.899107    1.393875
     17          1           0        6.412384    0.484329    1.066986
     18          1           0        5.451582    1.885760    0.516581
     19          1           0        5.332173    1.308505    2.200176
     20          1           0        4.947592   -0.919442    3.427746
     21          1           0        4.673912   -2.631406    3.008756
     22          1           0        6.032488   -1.726312    2.289873
     23          1           0       -3.325521    1.550733   -0.844935
     24          1           0       -3.083530   -2.952581    0.576569
     25          1           0       -6.274090   -0.124994   -2.115112
     26          1           0       -5.131524    1.154967   -2.610465
     27          1           0       -5.034622   -0.478345   -3.327173
     28          1           0       -4.883025   -2.931630   -2.543791
     29          1           0       -4.930295   -3.801388   -0.986082
     30          1           0       -6.155719   -2.561786   -1.372734
     31         78           0       -0.092590   -0.590235    0.147481
     32          6           0       -2.937967    0.066245    2.302186
     33          6           0        2.479023   -1.934296   -1.989598
     34         50           0        0.213695    1.940840   -0.348399
     35         17           0        1.385060    3.085947    1.429202
     36         17           0       -1.599043    3.530693   -0.626593
     37         17           0        1.510283    2.661976   -2.271193
     38         17           0       -0.227268   -2.907847    0.913008
     39          6           0        1.738683   -1.133555   -3.075611
     40          1           0        0.653093   -1.105401   -2.884938
     41          1           0        2.098033   -0.095237   -3.150963
     42          1           0        1.901304   -1.619466   -4.052524
     43          6           0        3.984956   -1.999682   -2.299805
     44          1           0        4.127874   -2.564450   -3.236370
     45          1           0        4.426631   -1.000432   -2.436357
     46          1           0        4.544005   -2.522152   -1.506387
     47          6           0        1.902411   -3.357611   -1.900502
     48          1           0        2.430767   -3.972399   -1.155500
     49          1           0        0.835496   -3.353601   -1.640638
     50          1           0        2.019953   -3.844234   -2.884350
     51          6           0       -2.352160   -0.960495    3.287605
     52          1           0       -2.765488   -1.968166    3.128918
     53          1           0       -1.256739   -1.023904    3.209499
     54          1           0       -2.605563   -0.649985    4.315180
     55          6           0       -2.352202    1.460011    2.587379
     56          1           0       -1.251430    1.451620    2.583097
     57          1           0       -2.697558    2.218018    1.868173
     58          1           0       -2.673773    1.783207    3.591311
     59          6           0       -4.471185    0.102397    2.415759
     60          1           0       -4.744671    0.362052    3.452184
     61          1           0       -4.914832    0.859214    1.752002
     62          1           0       -4.924747   -0.872654    2.183115
 ---------------------------------------------------------------------
 Rotational constants (GHZ):      0.1260974      0.0830871      0.0697423
 Leave Link  202 at Sat Jun 15 12:01:35 2019, MaxMem=13421772800 cpu:       1.7
 (Enter /home/scr/programs/g09/l301.exe)
 General basis read from cards:  (5D, 7F)
 Centers:  15 16 17 18 19 20 21 22 23 24 25 26 27 28 29 30 40 41 42 44
 Centers:  45 46 48 49 50 52 53 54 56 57 58 60 61 62
 S 5 1.00
     Exponent=  2.8295215633D+02 Coefficients=  4.3000000000D-04
     Exponent=  8.7062201949D+01 Coefficients=  5.1000000000D-04
     Exponent=  2.6788369830D+01 Coefficients=  6.1600000000D-03
     Exponent=  8.2425753324D+00 Coefficients=  1.3030000000D-02
     Exponent=  2.5361770254D+00 Coefficients=  9.9490000000D-02
 S 1 1.00
     Exponent=  7.8036216165D-01 Coefficients=  1.0000000000D+00
 S 1 1.00
     Exponent=  2.4011143435D-01 Coefficients=  1.0000000000D+00
 P 1 1.00
     Exponent=  8.8150000000D-01 Coefficients=  1.0000000000D+00
 P 1 1.00
     Exponent=  1.7989200000D-01 Coefficients=  1.0000000000D+00
 ****
 Centers:   3  4  5  6  7  8  9 10 11 12 13 14 32 33 39 43 47 51 55 59
 S 6 1.00
     Exponent=  8.8461235339D+03 Coefficients=  5.3000000000D-04
     Exponent=  2.9487078446D+03 Coefficients=  7.7000000000D-04
     Exponent=  9.8290261488D+02 Coefficients=  4.0500000000D-03
     Exponent=  3.2763420496D+02 Coefficients=  1.4030000000D-02
     Exponent=  1.0921140165D+02 Coefficients=  5.3450000000D-02
     Exponent=  3.6403800551D+01 Coefficients=  1.7027000000D-01
 S 1 1.00
     Exponent=  1.2134600184D+01 Coefficients=  1.0000000000D+00
 S 1 1.00
     Exponent=  4.0448667279D+00 Coefficients=  1.0000000000D+00
 S 1 1.00
     Exponent=  1.3482889093D+00 Coefficients=  1.0000000000D+00
 S 1 1.00
     Exponent=  4.4942963643D-01 Coefficients=  1.0000000000D+00
 S 1 1.00
     Exponent=  1.4980987881D-01 Coefficients=  1.0000000000D+00
 P 4 1.00
     Exponent=  3.7294093393D+01 Coefficients=  3.9600000000D-03
     Exponent=  1.1475105659D+01 Coefficients=  1.8890000000D-02
     Exponent=  3.5308017414D+00 Coefficients=  9.4610000000D-02
     Exponent=  1.0864005358D+00 Coefficients=  3.1889000000D-01
 P 1 1.00
     Exponent=  3.3427708794D-01 Coefficients=  1.0000000000D+00
 P 1 1.00
     Exponent=  1.0285448860D-01 Coefficients=  1.0000000000D+00
 D 1 1.00
     Exponent=  4.7750000000D-01 Coefficients=  1.0000000000D+00
 D 1 1.00
     Exponent=  1.1998000000D-01 Coefficients=  1.0000000000D+00
 ****
 Centers:   1  2
 S 7 1.00
     Exponent=  5.9538004301D+04 Coefficients=  9.5000000000D-04
     Exponent=  2.1650183382D+04 Coefficients=  6.1000000000D-04
     Exponent=  7.8727939572D+03 Coefficients=  3.7500000000D-03
     Exponent=  2.8628341663D+03 Coefficients=  9.6300000000D-03
     Exponent=  1.0410306059D+03 Coefficients=  3.2430000000D-02
     Exponent=  3.7855658397D+02 Coefficients=  9.9500000000D-02
     Exponent=  1.3765693962D+02 Coefficients=  2.6570000000D-01
 S 1 1.00
     Exponent=  5.0057068954D+01 Coefficients=  1.0000000000D+00
 S 1 1.00
     Exponent=  1.8202570529D+01 Coefficients=  1.0000000000D+00
 S 1 1.00
     Exponent=  6.6191165560D+00 Coefficients=  1.0000000000D+00
 S 1 1.00
     Exponent=  2.4069514749D+00 Coefficients=  1.0000000000D+00
 S 1 1.00
     Exponent=  8.7525508178D-01 Coefficients=  1.0000000000D+00
 S 1 1.00
     Exponent=  3.1827457519D-01 Coefficients=  1.0000000000D+00
 S 1 1.00
     Exponent=  1.1573620916D-01 Coefficients=  1.0000000000D+00
 S 1 1.00
     Exponent=  4.2085894240D-02 Coefficients=  1.0000000000D+00
 P 5 1.00
     Exponent=  4.8799672315D+02 Coefficients=  2.1600000000D-03
     Exponent=  1.6266557438D+02 Coefficients=  9.7900000000D-03
     Exponent=  5.4221858128D+01 Coefficients=  5.4850000000D-02
     Exponent=  1.8073952709D+01 Coefficients=  2.1770000000D-01
     Exponent=  6.0246509031D+00 Coefficients=  4.8978000000D-01
 P 1 1.00
     Exponent=  2.0082169677D+00 Coefficients=  1.0000000000D+00
 P 1 1.00
     Exponent=  6.6940565590D-01 Coefficients=  1.0000000000D+00
 P 1 1.00
     Exponent=  2.2313521863D-01 Coefficients=  1.0000000000D+00
 P 1 1.00
     Exponent=  7.4378406211D-02 Coefficients=  1.0000000000D+00
 P 1 1.00
     Exponent=  2.4792802070D-02 Coefficients=  1.0000000000D+00
 D 1 1.00
     Exponent=  3.5395000000D-01 Coefficients=  1.0000000000D+00
 D 1 1.00
     Exponent=  8.9098000000D-02 Coefficients=  1.0000000000D+00
 ****
 Centers:  35 36 37 38
 S 7 1.00
     Exponent=  7.7142817164D+04 Coefficients=  1.0600000000D-03
     Exponent=  2.8051933514D+04 Coefficients=  6.4000000000D-04
     Exponent=  1.0200703096D+04 Coefficients=  3.9600000000D-03
     Exponent=  3.7093465804D+03 Coefficients=  9.8300000000D-03
     Exponent=  1.3488533020D+03 Coefficients=  3.2690000000D-02
     Exponent=  4.9049210981D+02 Coefficients=  9.9520000000D-02
     Exponent=  1.7836076720D+02 Coefficients=  2.6555000000D-01
 S 1 1.00
     Exponent=  6.4858460801D+01 Coefficients=  1.0000000000D+00
 S 1 1.00
     Exponent=  2.3584894837D+01 Coefficients=  1.0000000000D+00
 S 1 1.00
     Exponent=  8.5763253951D+00 Coefficients=  1.0000000000D+00
 S 1 1.00
     Exponent=  3.1186637801D+00 Coefficients=  1.0000000000D+00
 S 1 1.00
     Exponent=  1.1340595564D+00 Coefficients=  1.0000000000D+00
 S 1 1.00
     Exponent=  4.1238529323D-01 Coefficients=  1.0000000000D+00
 S 1 1.00
     Exponent=  1.4995828845D-01 Coefficients=  1.0000000000D+00
 S 1 1.00
     Exponent=  5.4530286708D-02 Coefficients=  1.0000000000D+00
 P 5 1.00
     Exponent=  6.9498536057D+02 Coefficients=  2.0000000000D-03
     Exponent=  2.3166178686D+02 Coefficients=  8.9500000000D-03
     Exponent=  7.7220595619D+01 Coefficients=  5.1130000000D-02
     Exponent=  2.5740198540D+01 Coefficients=  2.1011000000D-01
     Exponent=  8.5800661799D+00 Coefficients=  4.9738000000D-01
 P 1 1.00
     Exponent=  2.8600220600D+00 Coefficients=  1.0000000000D+00
 P 1 1.00
     Exponent=  9.5334068665D-01 Coefficients=  1.0000000000D+00
 P 1 1.00
     Exponent=  3.1778022888D-01 Coefficients=  1.0000000000D+00
 P 1 1.00
     Exponent=  1.0592674296D-01 Coefficients=  1.0000000000D+00
 P 1 1.00
     Exponent=  3.5308914320D-02 Coefficients=  1.0000000000D+00
 D 1 1.00
     Exponent=  5.5696000000D-01 Coefficients=  1.0000000000D+00
 D 1 1.00
     Exponent=  1.5619100000D-01 Coefficients=  1.0000000000D+00
 ****
 Centers:  34
 S 8 1.00
     Exponent=  7.5448214551D+05 Coefficients=  4.4300000000D-03
     Exponent=  3.3532539800D+05 Coefficients=  1.9800000000D-03
     Exponent=  1.4903351022D+05 Coefficients=  9.0500000000D-03
     Exponent=  6.6237115655D+04 Coefficients=  4.8700000000D-03
     Exponent=  2.9438718069D+04 Coefficients=  2.0770000000D-02
     Exponent=  1.3083874697D+04 Coefficients=  3.2900000000D-02
     Exponent=  5.8150554210D+03 Coefficients=  7.7010000000D-02
     Exponent=  2.5844690760D+03 Coefficients=  1.5160000000D-01
 S 1 1.00
     Exponent=  1.1486529227D+03 Coefficients=  1.0000000000D+00
 S 1 1.00
     Exponent=  5.1051241008D+02 Coefficients=  1.0000000000D+00
 S 1 1.00
     Exponent=  2.2689440448D+02 Coefficients=  1.0000000000D+00
 S 1 1.00
     Exponent=  1.0084195755D+02 Coefficients=  1.0000000000D+00
 S 1 1.00
     Exponent=  4.4818647798D+01 Coefficients=  1.0000000000D+00
 S 1 1.00
     Exponent=  1.9919399021D+01 Coefficients=  1.0000000000D+00
 S 1 1.00
     Exponent=  8.8530662317D+00 Coefficients=  1.0000000000D+00
 S 1 1.00
     Exponent=  3.9346961030D+00 Coefficients=  1.0000000000D+00
 S 1 1.00
     Exponent=  1.7487538235D+00 Coefficients=  1.0000000000D+00
 S 1 1.00
     Exponent=  7.7722392158D-01 Coefficients=  1.0000000000D+00
 S 1 1.00
     Exponent=  3.4543285403D-01 Coefficients=  1.0000000000D+00
 S 1 1.00
     Exponent=  1.5352571290D-01 Coefficients=  1.0000000000D+00
 S 1 1.00
     Exponent=  6.8233650180D-02 Coefficients=  1.0000000000D+00
 S 1 1.00
     Exponent=  1.3478251887D-02 Coefficients=  1.0000000000D+00
 P 5 1.00
     Exponent=  1.0090658304D+04 Coefficients=  2.7500000000D-03
     Exponent=  4.0362633217D+03 Coefficients=  4.1800000000D-03
     Exponent=  1.6145053287D+03 Coefficients=  2.0890000000D-02
     Exponent=  6.4580213147D+02 Coefficients=  7.1370000000D-02
     Exponent=  2.5832085259D+02 Coefficients=  2.2613000000D-01
 P 1 1.00
     Exponent=  1.0332834104D+02 Coefficients=  1.0000000000D+00
 P 1 1.00
     Exponent=  4.1331336414D+01 Coefficients=  1.0000000000D+00
 P 1 1.00
     Exponent=  1.6532534566D+01 Coefficients=  1.0000000000D+00
 P 1 1.00
     Exponent=  6.6130138263D+00 Coefficients=  1.0000000000D+00
 P 1 1.00
     Exponent=  2.6452055305D+00 Coefficients=  1.0000000000D+00
 P 1 1.00
     Exponent=  1.0580822122D+00 Coefficients=  1.0000000000D+00
 P 1 1.00
     Exponent=  4.2323288488D-01 Coefficients=  1.0000000000D+00
 P 1 1.00
     Exponent=  1.6929315395D-01 Coefficients=  1.0000000000D+00
 P 1 1.00
     Exponent=  6.7717261581D-02 Coefficients=  1.0000000000D+00
 P 1 1.00
     Exponent=  2.7086904632D-02 Coefficients=  1.0000000000D+00
 P 1 1.00
     Exponent=  1.0834761853D-02 Coefficients=  1.0000000000D+00
 D 4 1.00
     Exponent=  5.5430250651D+02 Coefficients=  4.3700000000D-03
     Exponent=  2.0156454782D+02 Coefficients=  2.5110000000D-02
     Exponent=  7.3296199207D+01 Coefficients=  1.3316000000D-01
     Exponent=  2.6653163348D+01 Coefficients=  3.8900000000D-01
 D 1 1.00
     Exponent=  9.6920593993D+00 Coefficients=  1.0000000000D+00
 D 1 1.00
     Exponent=  3.5243852361D+00 Coefficients=  1.0000000000D+00
 D 1 1.00
     Exponent=  1.2815946313D+00 Coefficients=  1.0000000000D+00
 D 1 1.00
     Exponent=  4.6603441139D-01 Coefficients=  1.0000000000D+00
 D 1 1.00
     Exponent=  1.6946705869D-01 Coefficients=  1.0000000000D+00
 F 1 1.00
     Exponent=  1.3140000000D+00 Coefficients=  1.0000000000D+00
 F 1 1.00
     Exponent=  1.9993000000D-01 Coefficients=  1.0000000000D+00
 ****
 Centers:  31
 S 9 1.00
     Exponent=  2.1644816090D+06 Coefficients=  1.2320000000D-02
     Exponent=  1.0822408045D+06 Coefficients=  1.2970000000D-02
     Exponent=  5.4112040224D+05 Coefficients=  2.6370000000D-02
     Exponent=  2.7056020112D+05 Coefficients=  9.0400000000D-03
     Exponent=  1.3528010056D+05 Coefficients=  3.4980000000D-02
     Exponent=  6.7640050280D+04 Coefficients=  1.2220000000D-02
     Exponent=  3.3820025140D+04 Coefficients=  6.0520000000D-02
     Exponent=  1.6910012570D+04 Coefficients=  6.4930000000D-02
     Exponent=  8.4550062850D+03 Coefficients=  1.3819000000D-01
 S 1 1.00
     Exponent=  4.2275031425D+03 Coefficients=  1.0000000000D+00
 S 1 1.00
     Exponent=  2.1137515713D+03 Coefficients=  1.0000000000D+00
 S 1 1.00
     Exponent=  1.0568757856D+03 Coefficients=  1.0000000000D+00
 S 1 1.00
     Exponent=  5.2843789281D+02 Coefficients=  1.0000000000D+00
 S 1 1.00
     Exponent=  2.6421894641D+02 Coefficients=  1.0000000000D+00
 S 1 1.00
     Exponent=  1.3210947320D+02 Coefficients=  1.0000000000D+00
 S 1 1.00
     Exponent=  6.6054736602D+01 Coefficients=  1.0000000000D+00
 S 1 1.00
     Exponent=  3.3027368301D+01 Coefficients=  1.0000000000D+00
 S 1 1.00
     Exponent=  1.6513684150D+01 Coefficients=  1.0000000000D+00
 S 1 1.00
     Exponent=  8.2568420752D+00 Coefficients=  1.0000000000D+00
 S 1 1.00
     Exponent=  4.1284210376D+00 Coefficients=  1.0000000000D+00
 S 1 1.00
     Exponent=  2.0642105188D+00 Coefficients=  1.0000000000D+00
 S 1 1.00
     Exponent=  1.0321052594D+00 Coefficients=  1.0000000000D+00
 S 1 1.00
     Exponent=  5.1605262970D-01 Coefficients=  1.0000000000D+00
 S 1 1.00
     Exponent=  2.5802631485D-01 Coefficients=  1.0000000000D+00
 S 1 1.00
     Exponent=  1.2901315743D-01 Coefficients=  1.0000000000D+00
 S 1 1.00
     Exponent=  6.4506578713D-02 Coefficients=  1.0000000000D+00
 P 7 1.00
     Exponent=  3.2357915258D+04 Coefficients=  5.0200000000D-03
     Exponent=  1.4381295670D+04 Coefficients=  2.0200000000D-03
     Exponent=  6.3916869645D+03 Coefficients=  1.8070000000D-02
     Exponent=  2.8407497620D+03 Coefficients=  3.6620000000D-02
     Exponent=  1.2625554498D+03 Coefficients=  1.1172000000D-01
     Exponent=  5.6113575545D+02 Coefficients=  2.5586000000D-01
     Exponent=  2.4939366909D+02 Coefficients=  4.2608000000D-01
 P 1 1.00
     Exponent=  1.1084163071D+02 Coefficients=  1.0000000000D+00
 P 1 1.00
     Exponent=  4.9262946981D+01 Coefficients=  1.0000000000D+00
 P 1 1.00
     Exponent=  2.1894643103D+01 Coefficients=  1.0000000000D+00
 P 1 1.00
     Exponent=  9.7309524900D+00 Coefficients=  1.0000000000D+00
 P 1 1.00
     Exponent=  4.3248677733D+00 Coefficients=  1.0000000000D+00
 P 1 1.00
     Exponent=  1.9221634548D+00 Coefficients=  1.0000000000D+00
 P 1 1.00
     Exponent=  8.5429486881D-01 Coefficients=  1.0000000000D+00
 P 1 1.00
     Exponent=  3.7968660836D-01 Coefficients=  1.0000000000D+00
 P 1 1.00
     Exponent=  1.6874960372D-01 Coefficients=  1.0000000000D+00
 P 1 1.00
     Exponent=  7.4999823874D-02 Coefficients=  1.0000000000D+00
 P 1 1.00
     Exponent=  3.3333255055D-02 Coefficients=  1.0000000000D+00
 D 5 1.00
     Exponent=  1.9119003508D+03 Coefficients=  4.3300000000D-03
     Exponent=  7.6476014031D+02 Coefficients=  1.7780000000D-02
     Exponent=  3.0590405613D+02 Coefficients=  8.9710000000D-02
     Exponent=  1.2236162245D+02 Coefficients=  3.1123000000D-01
     Exponent=  4.8944648980D+01 Coefficients=  5.3206000000D-01
 D 1 1.00
     Exponent=  1.9577859592D+01 Coefficients=  1.0000000000D+00
 D 1 1.00
     Exponent=  7.8311438368D+00 Coefficients=  1.0000000000D+00
 D 1 1.00
     Exponent=  3.1324575347D+00 Coefficients=  1.0000000000D+00
 D 1 1.00
     Exponent=  1.2529830139D+00 Coefficients=  1.0000000000D+00
 D 1 1.00
     Exponent=  5.0119320556D-01 Coefficients=  1.0000000000D+00
 D 1 1.00
     Exponent=  2.0047728222D-01 Coefficients=  1.0000000000D+00
 D 1 1.00
     Exponent=  8.0190912889D-02 Coefficients=  1.0000000000D+00
 D 1 1.00
     Exponent=  3.2076365156D-02 Coefficients=  1.0000000000D+00
 F 4 1.00
     Exponent=  8.2289680979D+01 Coefficients=  6.1870000000D-02
     Exponent=  2.9923520356D+01 Coefficients=  2.4823000000D-01
     Exponent=  1.0881280130D+01 Coefficients=  4.9956000000D-01
     Exponent=  3.9568291380D+00 Coefficients=  4.0380000000D-01
 F 1 1.00
     Exponent=  1.4388469593D+00 Coefficients=  1.0000000000D+00
 F 1 1.00
     Exponent=  5.2321707610D-01 Coefficients=  1.0000000000D+00
 G 1 1.00
     Exponent=  2.6700000000D+00 Coefficients=  1.0000000000D+00
 G 1 1.00
     Exponent=  9.0960000000D-01 Coefficients=  1.0000000000D+00
 ****
 Ernie: Thresh=  0.10000D-02 Tol=  0.10000D-05 Strict=F.
 There are  1261 symmetry adapted basis functions of A   symmetry.
 Integral buffers will be    131072 words long.
 Raffenetti 2 integral format.
 Two-electron integral symmetry is turned on.
  1261 basis functions,  1996 primitive gaussians,  1355 cartesian basis functions
   190 alpha electrons      190 beta electrons
       nuclear repulsion energy      8682.9091663385 Hartrees.
 IExCor= 1009 DFT=T Ex=PBE Corr=PBE ExCW=0 ScaHFX=  0.000000
 ScaDFX=  1.000000  1.000000  1.000000  1.000000 ScalE2=  1.000000  1.000000
 IRadAn=      0 IRanWt=     -1 IRanGd=            0 ICorTp=0
 NAtoms=   62 NActive=   62 NUniq=   62 SFac= 7.50D-01 NAtFMM=   80 NAOKFM=F Big=T
 ------------------------------------------------------------------------------
 Polarizable Continuum Model (PCM)
 =================================
 Model                : PCM.
 Atomic radii         : UFF (Universal Force Field).
 Polarization charges : Total charges.
 Charge compensation  : None.
 Solution method      : Matrix inversion.
 Cavity type          : Scaled VdW (van der Waals Surface) (Alpha=1.100).
 Cavity algorithm     : GePol (No added spheres)
                        Default sphere list used, NSphG=   62.
                        Lebedev-Laikov grids with approx.  5.0 points / Ang**2.
                        Smoothing algorithm: Karplus/York (Gamma=1.0000).
                        Polarization charges: spherical gaussians, with
                                              point-specific exponents (IZeta= 3).
                        Self-potential: point-specific (ISelfS= 7).
                        Self-field    : sphere-specific E.n sum rule (ISelfD= 2).
 Solvent              : Dichloromethane, Eps=   8.930000 Eps(inf)=   2.028346
 ------------------------------------------------------------------------------
 GePol: Number of generator spheres                  =      62
 GePol: Total number of spheres                      =      62
 GePol: Number of exposed spheres                    =      62 (100.00%)
 GePol: Number of points                             =    4296
 GePol: Average weight of points                     =       0.14
 GePol: Minimum weight of points                     =   0.27D-11
 GePol: Maximum weight of points                     =    0.21838
 GePol: Number of points with low weight             =     307
 GePol: Fraction of low-weight points (<1% of avg)   =       7.15%
 GePol: Cavity surface area                          =    596.824 Ang**2
 GePol: Cavity volume                                =    715.282 Ang**3
 Leave Link  301 at Sat Jun 15 12:01:36 2019, MaxMem=13421772800 cpu:       7.3
 (Enter /home/scr/programs/g09/l302.exe)
 NPDir=0 NMtPBC=     1 NCelOv=     1 NCel=       1 NClECP=     1 NCelD=      1
         NCelK=      1 NCelE2=     1 NClLst=     1 CellRange=     0.0.
 One-electron integrals computed using PRISM.
 NBasis=  1261 RedAO= T  NBF=  1261
 NBsUse=  1261 1.00D-06 NBFU=  1261
 Precomputing XC quadrature grid using
 IXCGrd= 2 IRadAn=           0 IRanWt=          -1 IRanGd=           0 AccXCQ= 1.00D-10.
 Defaulting to unpruned grid for atomic number  78.
 Defaulting to unpruned grid for atomic number  50.
 NRdTot=    4109 NPtTot=      548850 NUsed=      578432 NTot=      578464
 NSgBfM=  1177  1177  1177  1177  1177 NAtAll=    62    62.
 Leave Link  302 at Sat Jun 15 12:01:45 2019, MaxMem=13421772800 cpu:     291.7
 (Enter /home/scr/programs/g09/l308.exe)
 Leave Link  308 at Sat Jun 15 12:01:47 2019, MaxMem=13421772800 cpu:      72.6
 (Enter /home/scr/programs/g09/l303.exe)
 DipDrv:  MaxL=1.
 Leave Link  303 at Sat Jun 15 12:01:49 2019, MaxMem=13421772800 cpu:      41.8
 (Enter /home/scr/programs/g09/l401.exe)
 Harris functional with IExCor= 1009 diagonalized for initial guess.
 ExpMin= 1.08D-02 ExpMax= 2.16D+06 ExpMxC= 2.16D+06 IAcc=4 IRadAn=         0 AccDes= 0.00D+00
 HarFok:  IExCor= 1009 AccDes= 0.00D+00 IRadAn=         0 IDoV= 1
 ScaDFX=  1.000000  1.000000  1.000000  1.000000
 Defaulting to unpruned grid for atomic number  78.
 Defaulting to unpruned grid for atomic number  78.
 Defaulting to unpruned grid for atomic number  78.
 Defaulting to unpruned grid for atomic number  78.
 Defaulting to unpruned grid for atomic number  78.
 Defaulting to unpruned grid for atomic number  78.
 Defaulting to unpruned grid for atomic number  78.
 Defaulting to unpruned grid for atomic number  78.
 Defaulting to unpruned grid for atomic number  78.
 Defaulting to unpruned grid for atomic number  78.
 Defaulting to unpruned grid for atomic number  78.
 Defaulting to unpruned grid for atomic number  78.
 Defaulting to unpruned grid for atomic number  78.
 Defaulting to unpruned grid for atomic number  78.
 Defaulting to unpruned grid for atomic number  78.
 Defaulting to unpruned grid for atomic number  78.
 Defaulting to unpruned grid for atomic number  78.
 Defaulting to unpruned grid for atomic number  78.
 Defaulting to unpruned grid for atomic number  78.
 Defaulting to unpruned grid for atomic number  78.
 Defaulting to unpruned grid for atomic number  78.
 Defaulting to unpruned grid for atomic number  78.
 Defaulting to unpruned grid for atomic number  78.
 Defaulting to unpruned grid for atomic number  78.
 Defaulting to unpruned grid for atomic number  78.
 Defaulting to unpruned grid for atomic number  78.
 Defaulting to unpruned grid for atomic number  78.
 Defaulting to unpruned grid for atomic number  78.
 Defaulting to unpruned grid for atomic number  78.
 Defaulting to unpruned grid for atomic number  78.
 Defaulting to unpruned grid for atomic number  78.
 Defaulting to unpruned grid for atomic number  78.
 FoFCou: FMM=F IPFlag=           0 FMFlag=      100000 FMFlg1=           1
         NFxFlg=           0 DoJE=T BraDBF=F KetDBF=T FulRan=T
         Omega=  0.000000  0.000000  1.000000  0.000000  0.000000 ICntrl=     500 IOpCl=  0
         NMat0=    1 NMatS0=    1 NMatT0=    0 NMatD0=    1 NMtDS0=    0 NMtDT0=    0
         I1Cent=           4 NGrid=           0.
 Petite list used in FoFCou.
 Harris En= -26411.5700469353    
 Initial guess orbital symmetries:
       Occupied  (A) (A) (A) (A) (A) (A) (A) (A) (A) (A) (A) (A)
                 (A) (A) (A) (A) (A) (A) (A) (A) (A) (A) (A) (A)
                 (A) (A) (A) (A) (A) (A) (A) (A) (A) (A) (A) (A)
                 (A) (A) (A) (A) (A) (A) (A) (A) (A) (A) (A) (A)
                 (A) (A) (A) (A) (A) (A) (A) (A) (A) (A) (A) (A)
                 (A) (A) (A) (A) (A) (A) (A) (A) (A) (A) (A) (A)
                 (A) (A) (A) (A) (A) (A) (A) (A) (A) (A) (A) (A)
                 (A) (A) (A) (A) (A) (A) (A) (A) (A) (A) (A) (A)
                 (A) (A) (A) (A) (A) (A) (A) (A) (A) (A) (A) (A)
                 (A) (A) (A) (A) (A) (A) (A) (A) (A) (A) (A) (A)
                 (A) (A) (A) (A) (A) (A) (A) (A) (A) (A) (A) (A)
                 (A) (A) (A) (A) (A) (A) (A) (A) (A) (A) (A) (A)
                 (A) (A) (A) (A) (A) (A) (A) (A) (A) (A) (A) (A)
                 (A) (A) (A) (A) (A) (A) (A) (A) (A) (A) (A) (A)
                 (A) (A) (A) (A) (A) (A) (A) (A) (A) (A) (A) (A)
                 (A) (A) (A) (A) (A) (A) (A) (A) (A) (A)
       Virtual   (A) (A) (A) (A) (A) (A) (A) (A) (A) (A) (A) (A)
                 (A) (A) (A) (A) (A) (A) (A) (A) (A) (A) (A) (A)
                 (A) (A) (A) (A) (A) (A) (A) (A) (A) (A) (A) (A)
                 (A) (A) (A) (A) (A) (A) (A) (A) (A) (A) (A) (A)
                 (A) (A) (A) (A) (A) (A) (A) (A) (A) (A) (A) (A)
                 (A) (A) (A) (A) (A) (A) (A) (A) (A) (A) (A) (A)
                 (A) (A) (A) (A) (A) (A) (A) (A) (A) (A) (A) (A)
                 (A) (A) (A) (A) (A) (A) (A) (A) (A) (A) (A) (A)
                 (A) (A) (A) (A) (A) (A) (A) (A) (A) (A) (A) (A)
                 (A) (A) (A) (A) (A) (A) (A) (A) (A) (A) (A) (A)
                 (A) (A) (A) (A) (A) (A) (A) (A) (A) (A) (A) (A)
                 (A) (A) (A) (A) (A) (A) (A) (A) (A) (A) (A) (A)
                 (A) (A) (A) (A) (A) (A) (A) (A) (A) (A) (A) (A)
                 (A) (A) (A) (A) (A) (A) (A) (A) (A) (A) (A) (A)
                 (A) (A) (A) (A) (A) (A) (A) (A) (A) (A) (A) (A)
                 (A) (A) (A) (A) (A) (A) (A) (A) (A) (A) (A) (A)
                 (A) (A) (A) (A) (A) (A) (A) (A) (A) (A) (A) (A)
                 (A) (A) (A) (A) (A) (A) (A) (A) (A) (A) (A) (A)
                 (A) (A) (A) (A) (A) (A) (A) (A) (A) (A) (A) (A)
                 (A) (A) (A) (A) (A) (A) (A) (A) (A) (A) (A) (A)
                 (A) (A) (A) (A) (A) (A) (A) (A) (A) (A) (A) (A)
                 (A) (A) (A) (A) (A) (A) (A) (A) (A) (A) (A) (A)
                 (A) (A) (A) (A) (A) (A) (A) (A) (A) (A) (A) (A)
                 (A) (A) (A) (A) (A) (A) (A) (A) (A) (A) (A) (A)
                 (A) (A) (A) (A) (A) (A) (A) (A) (A) (A) (A) (A)
                 (A) (A) (A) (A) (A) (A) (A) (A) (A) (A) (A) (A)
                 (A) (A) (A) (A) (A) (A) (A) (A) (A) (A) (A) (A)
                 (A) (A) (A) (A) (A) (A) (A) (A) (A) (A) (A) (A)
                 (A) (A) (A) (A) (A) (A) (A) (A) (A) (A) (A) (A)
                 (A) (A) (A) (A) (A) (A) (A) (A) (A) (A) (A) (A)
                 (A) (A) (A) (A) (A) (A) (A) (A) (A) (A) (A) (A)
                 (A) (A) (A) (A) (A) (A) (A) (A) (A) (A) (A) (A)
                 (A) (A) (A) (A) (A) (A) (A) (A) (A) (A) (A) (A)
                 (A) (A) (A) (A) (A) (A) (A) (A) (A) (A) (A) (A)
                 (A) (A) (A) (A) (A) (A) (A) (A) (A) (A) (A) (A)
                 (A) (A) (A) (A) (A) (A) (A) (A) (A) (A) (A) (A)
                 (A) (A) (A) (A) (A) (A) (A) (A) (A) (A) (A) (A)
                 (A) (A) (A) (A) (A) (A) (A) (A) (A) (A) (A) (A)
                 (A) (A) (A) (A) (A) (A) (A) (A) (A) (A) (A) (A)
                 (A) (A) (A) (A) (A) (A) (A) (A) (A) (A) (A) (A)
                 (A) (A) (A) (A) (A) (A) (A) (A) (A) (A) (A) (A)
                 (A) (A) (A) (A) (A) (A) (A) (A) (A) (A) (A) (A)
                 (A) (A) (A) (A) (A) (A) (A) (A) (A) (A) (A) (A)
                 (A) (A) (A) (A) (A) (A) (A) (A) (A) (A) (A) (A)
                 (A) (A) (A) (A) (A) (A) (A) (A) (A) (A) (A) (A)
                 (A) (A) (A) (A) (A) (A) (A) (A) (A) (A) (A) (A)
                 (A) (A) (A) (A) (A) (A) (A) (A) (A) (A) (A) (A)
                 (A) (A) (A) (A) (A) (A) (A) (A) (A) (A) (A) (A)
                 (A) (A) (A) (A) (A) (A) (A) (A) (A) (A) (A) (A)
                 (A) (A) (A) (A) (A) (A) (A) (A) (A) (A) (A) (A)
                 (A) (A) (A) (A) (A) (A) (A) (A) (A) (A) (A) (A)
                 (A) (A) (A) (A) (A) (A) (A) (A) (A) (A) (A) (A)
                 (A) (A) (A) (A) (A) (A) (A) (A) (A) (A) (A) (A)
                 (A) (A) (A) (A) (A) (A) (A) (A) (A) (A) (A) (A)
                 (A) (A) (A) (A) (A) (A) (A) (A) (A) (A) (A) (A)
                 (A) (A) (A) (A) (A) (A) (A) (A) (A) (A) (A) (A)
                 (A) (A) (A) (A) (A) (A) (A) (A) (A) (A) (A) (A)
                 (A) (A) (A) (A) (A) (A) (A) (A) (A) (A) (A) (A)
                 (A) (A) (A) (A) (A) (A) (A) (A) (A) (A) (A) (A)
                 (A) (A) (A) (A) (A) (A) (A) (A) (A) (A) (A) (A)
                 (A) (A) (A) (A) (A) (A) (A) (A) (A) (A) (A) (A)
                 (A) (A) (A) (A) (A) (A) (A) (A) (A) (A) (A) (A)
                 (A) (A) (A) (A) (A) (A) (A) (A) (A) (A) (A) (A)
                 (A) (A) (A) (A) (A) (A) (A) (A) (A) (A) (A) (A)
                 (A) (A) (A) (A) (A) (A) (A) (A) (A) (A) (A) (A)
                 (A) (A) (A) (A) (A) (A) (A) (A) (A) (A) (A) (A)
                 (A) (A) (A) (A) (A) (A) (A) (A) (A) (A) (A) (A)
                 (A) (A) (A) (A) (A) (A) (A) (A) (A) (A) (A) (A)
                 (A) (A) (A) (A) (A) (A) (A) (A) (A) (A) (A) (A)
                 (A) (A) (A) (A) (A) (A) (A) (A) (A) (A) (A) (A)
                 (A) (A) (A) (A) (A) (A) (A) (A) (A) (A) (A) (A)
                 (A) (A) (A) (A) (A) (A) (A) (A) (A) (A) (A) (A)
                 (A) (A) (A) (A) (A) (A) (A) (A) (A) (A) (A) (A)
                 (A) (A) (A) (A) (A) (A) (A) (A) (A) (A) (A) (A)
                 (A) (A) (A) (A) (A) (A) (A) (A) (A) (A) (A) (A)
                 (A) (A) (A) (A) (A) (A) (A) (A) (A) (A) (A) (A)
                 (A) (A) (A) (A) (A) (A) (A) (A) (A) (A) (A) (A)
                 (A) (A) (A) (A) (A) (A) (A) (A) (A) (A) (A) (A)
                 (A) (A) (A) (A) (A) (A) (A) (A) (A) (A) (A) (A)
                 (A) (A) (A) (A) (A) (A) (A) (A) (A) (A) (A) (A)
                 (A) (A) (A) (A) (A) (A) (A) (A) (A) (A) (A) (A)
                 (A) (A) (A) (A) (A) (A) (A) (A) (A) (A) (A) (A)
                 (A) (A) (A) (A) (A) (A) (A) (A) (A) (A) (A) (A)
                 (A) (A) (A) (A) (A) (A) (A) (A) (A) (A) (A) (A)
                 (A) (A) (A) (A) (A) (A) (A) (A) (A) (A) (A) (A)
                 (A) (A) (A) (A) (A) (A) (A) (A) (A) (A) (A) (A)
                 (A) (A) (A) (A) (A) (A) (A) (A) (A) (A) (A) (A)
                 (A) (A) (A) (A) (A) (A) (A) (A) (A) (A) (A) (A)
                 (A) (A) (A) (A) (A) (A) (A) (A) (A) (A) (A) (A)
                 (A) (A) (A)
 The electronic state of the initial guess is 1-A.
 Leave Link  401 at Sat Jun 15 12:02:07 2019, MaxMem=13421772800 cpu:     545.5
 (Enter /home/scr/programs/g09/l502.exe)
 Closed shell SCF:
 Requested convergence on RMS density matrix=1.00D-04 within 500 cycles.
 Requested convergence on MAX density matrix=1.00D-02.
 Requested convergence on             energy=1.00D-02.
 No special actions if energy rises.
 Using DIIS extrapolation, IDIIS=  1040.
 Integral symmetry usage will be decided dynamically.
       577861 words used for storage of precomputed grid.
 IEnd=     6393004 IEndB=     6393004 NGot= 13421772800 MDV= 13417468177
 LenX= 13417468177 LenY= 13415630797
 Fock matrices will be formed incrementally for  20 cycles.

 Cycle   1  Pass 1  IDiag  1:
 FoFCou: FMM=T IPFlag=           0 FMFlag=      100000 FMFlg1=           1
         NFxFlg=           0 DoJE=T BraDBF=F KetDBF=F FulRan=T
         Omega=  0.000000  0.000000  1.000000  0.000000  0.000000 ICntrl=     500 IOpCl=  0
         NMat0=    1 NMatS0=    1 NMatT0=    0 NMatD0=    1 NMtDS0=    0 NMtDT0=    0
         I1Cent=           0 NGrid=           0.
 Symmetry not used in FoFCou.
 FMM levels:  10  Number of levels for PrismC:   9
 Defaulting to unpruned grid for atomic number  78.
 Defaulting to unpruned grid for atomic number  78.
 Defaulting to unpruned grid for atomic number  78.
 Defaulting to unpruned grid for atomic number  78.
 Defaulting to unpruned grid for atomic number  78.
 Defaulting to unpruned grid for atomic number  78.
 Defaulting to unpruned grid for atomic number  78.
 Defaulting to unpruned grid for atomic number  78.
 Defaulting to unpruned grid for atomic number  78.
 Defaulting to unpruned grid for atomic number  78.
 Defaulting to unpruned grid for atomic number  78.
 Defaulting to unpruned grid for atomic number  78.
 Defaulting to unpruned grid for atomic number  78.
 Defaulting to unpruned grid for atomic number  78.
 Defaulting to unpruned grid for atomic number  78.
 Defaulting to unpruned grid for atomic number  78.
 Defaulting to unpruned grid for atomic number  78.
 Defaulting to unpruned grid for atomic number  78.
 Defaulting to unpruned grid for atomic number  78.
 Defaulting to unpruned grid for atomic number  78.
 Defaulting to unpruned grid for atomic number  78.
 Defaulting to unpruned grid for atomic number  78.
 Defaulting to unpruned grid for atomic number  78.
 Defaulting to unpruned grid for atomic number  78.
 Defaulting to unpruned grid for atomic number  78.
 Defaulting to unpruned grid for atomic number  78.
 Defaulting to unpruned grid for atomic number  78.
 Defaulting to unpruned grid for atomic number  78.
 Defaulting to unpruned grid for atomic number  78.
 Defaulting to unpruned grid for atomic number  78.
 Defaulting to unpruned grid for atomic number  78.
 Defaulting to unpruned grid for atomic number  78.
 E= -26389.8954700747    
 DIIS: error= 2.34D-01 at cycle   1 NSaved=   1.
 NSaved= 1 IEnMin= 1 EnMin= -26389.8954700747     IErMin= 1 ErrMin= 2.34D-01
 ErrMax= 2.34D-01 EMaxC= 1.00D-01 BMatC= 3.47D+02 BMatP= 3.47D+02
 IDIUse=3 WtCom= 0.00D+00 WtEn= 1.00D+00
 Coeff-Com:  0.100D+01
 Coeff-En:   0.100D+01
 Coeff:      0.100D+01
 Gap=     0.457 Goal=   None    Shift=    0.000
 GapD=    0.457 DampG=2.000 DampE=0.125 DampFc=0.2500 IDamp=-1.
 Damping current iteration by 2.50D-01
 RMSDP=1.16D-02 MaxDP=2.40D+00              OVMax= 7.12D-01

 Cycle   2  Pass 1  IDiag  1:
 RMSU=  2.01D-03    CP:  9.63D-01
 E= -26391.7670886746     Delta-E=       -1.871618599886 Rises=F Damp=T
 DIIS: error= 1.76D-01 at cycle   2 NSaved=   2.
 NSaved= 2 IEnMin= 2 EnMin= -26391.7670886746     IErMin= 2 ErrMin= 1.76D-01
 ErrMax= 1.76D-01 EMaxC= 1.00D-01 BMatC= 1.69D+02 BMatP= 3.47D+02
 IDIUse=3 WtCom= 0.00D+00 WtEn= 1.00D+00
 Coeff-Com: -0.202D+01 0.302D+01
 Coeff-En:   0.000D+00 0.100D+01
 Coeff:      0.000D+00 0.100D+01
 Gap=     0.206 Goal=   None    Shift=    0.000
 RMSDP=3.54D-03 MaxDP=5.33D-01 DE=-1.87D+00 OVMax= 9.03D-01

 Cycle   3  Pass 1  IDiag  1:
 RMSU=  2.15D-03    CP:  8.57D-01  7.13D-01
 E= -26394.0629140747     Delta-E=       -2.295825400106 Rises=F Damp=F
 DIIS: error= 5.82D-02 at cycle   3 NSaved=   3.
 NSaved= 3 IEnMin= 3 EnMin= -26394.0629140747     IErMin= 3 ErrMin= 5.82D-02
 ErrMax= 5.82D-02 EMaxC= 1.00D-01 BMatC= 9.60D+00 BMatP= 1.69D+02
 IDIUse=3 WtCom= 4.18D-01 WtEn= 5.82D-01
 Coeff-Com:  0.100D+01-0.124D+01 0.124D+01
 Coeff-En:   0.180D+00 0.000D+00 0.820D+00
 Coeff:      0.522D+00-0.517D+00 0.995D+00
 Gap=     0.154 Goal=   None    Shift=    0.000
 RMSDP=6.27D-03 MaxDP=8.28D-01 DE=-2.30D+00 OVMax= 8.22D-01

 Cycle   4  Pass 1  IDiag  1:
 RMSU=  3.91D-03    CP:  7.70D-01  1.41D+00  4.20D-01
 E= -26389.7680491773     Delta-E=        4.294864897362 Rises=F Damp=F
 DIIS: error= 2.78D-02 at cycle   4 NSaved=   4.
 NSaved= 4 IEnMin= 3 EnMin= -26394.0629140747     IErMin= 4 ErrMin= 2.78D-02
 ErrMax= 2.78D-02 EMaxC= 1.00D-01 BMatC= 5.34D+00 BMatP= 9.60D+00
 IDIUse=3 WtCom= 7.22D-01 WtEn= 2.78D-01
 EnCoef did     7 forward-backward iterations
 Coeff-Com:  0.525D+00-0.655D+00 0.728D+00 0.402D+00
 Coeff-En:   0.111D+00 0.000D+00 0.745D+00 0.144D+00
 Coeff:      0.410D+00-0.473D+00 0.733D+00 0.330D+00
 Gap=     0.016 Goal=   None    Shift=    0.000
 RMSDP=6.19D-03 MaxDP=8.84D-01 DE= 4.29D+00 OVMax= 9.12D-01

 Cycle   5  Pass 1  IDiag  1:
 RMSU=  7.94D-04    CP:  8.81D-01  5.44D-01  7.15D-01  5.49D-02
 E= -26395.0736732272     Delta-E=       -5.305624049855 Rises=F Damp=F
 DIIS: error= 8.42D-03 at cycle   5 NSaved=   5.
 NSaved= 5 IEnMin= 5 EnMin= -26395.0736732272     IErMin= 5 ErrMin= 8.42D-03
 ErrMax= 8.42D-03 EMaxC= 1.00D-01 BMatC= 4.34D-01 BMatP= 5.34D+00
 IDIUse=3 WtCom= 9.16D-01 WtEn= 8.42D-02
 EnCoef did     2 forward-backward iterations
 Coeff-Com:  0.176D-01-0.996D-02 0.194D+00 0.168D+00 0.631D+00
 Coeff-En:   0.000D+00 0.000D+00 0.606D-02 0.464D-01 0.948D+00
 Coeff:      0.161D-01-0.912D-02 0.178D+00 0.158D+00 0.657D+00
 Gap=     0.119 Goal=   None    Shift=    0.000
 RMSDP=2.09D-03 MaxDP=2.85D-01 DE=-5.31D+00 OVMax= 3.20D-01

 Cycle   6  Pass 1  IDiag  1:
 RMSU=  8.18D-04    CP:  8.18D-01  6.18D-01  8.16D-01  1.77D-01 -8.23D-02
 E= -26395.2671623670     Delta-E=       -0.193489139827 Rises=F Damp=F
 DIIS: error= 3.43D-03 at cycle   6 NSaved=   6.
 NSaved= 6 IEnMin= 6 EnMin= -26395.2671623670     IErMin= 6 ErrMin= 3.43D-03
 ErrMax= 3.43D-03 EMaxC= 1.00D-01 BMatC= 1.42D-01 BMatP= 4.34D-01
 IDIUse=3 WtCom= 9.66D-01 WtEn= 3.43D-02
 Coeff-Com: -0.107D+00 0.145D+00-0.499D-02 0.496D-01 0.414D+00 0.502D+00
 Coeff-En:   0.000D+00 0.000D+00 0.000D+00 0.000D+00 0.274D+00 0.726D+00
 Coeff:     -0.103D+00 0.140D+00-0.481D-02 0.479D-01 0.409D+00 0.510D+00
 Gap=     0.110 Goal=   None    Shift=    0.000
 RMSDP=8.81D-04 MaxDP=9.49D-02 DE=-1.93D-01 OVMax= 1.47D-01

 Cycle   7  Pass 1  IDiag  1:
 RMSU=  3.61D-04    CP:  8.33D-01  6.56D-01  7.99D-01  1.61D-01  3.38D-01
                    CP:  6.01D-01
 E= -26395.3881594008     Delta-E=       -0.120997033730 Rises=F Damp=F
 DIIS: error= 1.60D-03 at cycle   7 NSaved=   7.
 NSaved= 7 IEnMin= 7 EnMin= -26395.3881594008     IErMin= 7 ErrMin= 1.60D-03
 ErrMax= 1.60D-03 EMaxC= 1.00D-01 BMatC= 1.56D-02 BMatP= 1.42D-01
 IDIUse=3 WtCom= 9.84D-01 WtEn= 1.60D-02
 Coeff-Com: -0.502D-01 0.674D-01-0.125D-01 0.182D-01 0.175D+00 0.301D+00
 Coeff-Com:  0.502D+00
 Coeff-En:   0.000D+00 0.000D+00 0.000D+00 0.000D+00 0.000D+00 0.898D-01
 Coeff-En:   0.910D+00
 Coeff:     -0.494D-01 0.664D-01-0.123D-01 0.179D-01 0.172D+00 0.297D+00
 Coeff:      0.508D+00
 Gap=     0.088 Goal=   None    Shift=    0.000
 RMSDP=3.37D-04 MaxDP=2.34D-02 DE=-1.21D-01 OVMax= 6.71D-02

 Cycle   8  Pass 1  IDiag  1:
 RMSU=  1.75D-04    CP:  8.33D-01  6.74D-01  7.91D-01  1.77D-01  3.16D-01
                    CP:  6.75D-01  6.45D-01
 E= -26395.3980671613     Delta-E=       -0.009907760526 Rises=F Damp=F
 DIIS: error= 9.74D-04 at cycle   8 NSaved=   8.
 NSaved= 8 IEnMin= 8 EnMin= -26395.3980671613     IErMin= 8 ErrMin= 9.74D-04
 ErrMax= 9.74D-04 EMaxC= 1.00D-01 BMatC= 4.95D-03 BMatP= 1.56D-02
 IDIUse=3 WtCom= 9.90D-01 WtEn= 9.74D-03
 Coeff-Com: -0.873D-02 0.115D-01-0.420D-02 0.517D-02 0.352D-01 0.106D+00
 Coeff-Com:  0.377D+00 0.478D+00
 Coeff-En:   0.000D+00 0.000D+00 0.000D+00 0.000D+00 0.000D+00 0.000D+00
 Coeff-En:   0.295D+00 0.705D+00
 Coeff:     -0.864D-02 0.114D-01-0.416D-02 0.512D-02 0.348D-01 0.105D+00
 Coeff:      0.376D+00 0.480D+00
 Gap=     0.088 Goal=   None    Shift=    0.000
 RMSDP=1.57D-04 MaxDP=8.80D-03 DE=-9.91D-03 OVMax= 3.82D-02

 Cycle   9  Pass 1  IDiag  1:
 RMSU=  6.20D-05    CP:  8.32D-01  6.73D-01  7.91D-01  1.79D-01  3.18D-01
                    CP:  6.72D-01  7.61D-01  5.36D-01
 E= -26395.4025751039     Delta-E=       -0.004507942671 Rises=F Damp=F
 DIIS: error= 3.47D-04 at cycle   9 NSaved=   9.
 NSaved= 9 IEnMin= 9 EnMin= -26395.4025751039     IErMin= 9 ErrMin= 3.47D-04
 ErrMax= 3.47D-04 EMaxC= 1.00D-01 BMatC= 8.18D-04 BMatP= 4.95D-03
 IDIUse=3 WtCom= 9.97D-01 WtEn= 3.47D-03
 Coeff-Com:  0.481D-03-0.750D-03-0.580D-03 0.608D-03 0.308D-03 0.346D-01
 Coeff-Com:  0.193D+00 0.338D+00 0.434D+00
 Coeff-En:   0.000D+00 0.000D+00 0.000D+00 0.000D+00 0.000D+00 0.000D+00
 Coeff-En:   0.000D+00 0.153D+00 0.847D+00
 Coeff:      0.479D-03-0.747D-03-0.578D-03 0.606D-03 0.307D-03 0.345D-01
 Coeff:      0.192D+00 0.338D+00 0.435D+00
 Gap=     0.088 Goal=   None    Shift=    0.000
 RMSDP=5.50D-05 MaxDP=3.40D-03 DE=-4.51D-03 OVMax= 1.19D-02

 Error on total polarization charges =  0.02378
 SCF Done:  E(RPBE-PBE) =  -26395.4025751     A.U. after    9 cycles
             Convg  =    0.5496D-04             -V/T =  2.0155
 KE= 2.599155853222D+04 PE=-7.982719911260D+04 EE= 1.875732883894D+04
 Leave Link  502 at Sat Jun 15 12:14:26 2019, MaxMem=13421772800 cpu:   23487.9
 (Enter /home/scr/programs/g09/l801.exe)
 Range of M.O.s used for correlation:     1  1261
 NBasis=  1261 NAE=   190 NBE=   190 NFC=     0 NFV=     0
 NROrb=   1261 NOA=   190 NOB=   190 NVA=  1071 NVB=  1071

 **** Warning!!: The largest alpha MO coefficient is  0.70436091D+02


 **** Warning!!: The smallest alpha delta epsilon is  0.87454795D-01

 Leave Link  801 at Sat Jun 15 12:14:26 2019, MaxMem=13421772800 cpu:       1.3
 (Enter /home/scr/programs/g09/l1002.exe)
 Minotr:  Closed shell wavefunction.
 NEqPCM:  Using equilibrium solvation (IEInf=0, Eps=   8.9300, EpsInf=   2.0283)
          Direct CPHF calculation.
          Differentiating once with respect to magnetic field using GIAOs.
          Electric field/nuclear overlap derivatives assumed to be zero.
          Requested convergence is 1.0D-08 RMS, and 1.0D-07 maximum.
          Secondary convergence is 1.0D-12 RMS, and 1.0D-12 maximum.
          NewPWx=T KeepS1=F KeepF1=F KeepIn=T MapXYZ=F SortEE=F KeepMc=T.
          MDV=   13421772300 using IRadAn=       2.
 Defaulting to unpruned grid for atomic number  78.
 Defaulting to unpruned grid for atomic number  50.
 Generate precomputed XC quadrature information.
          Solving linear equations simultaneously, MaxMat=      96.
 FoFCou: FMM=F IPFlag=           0 FMFlag=    10101102 FMFlg1=           1
         NFxFlg=    40000000 DoJE=F BraDBF=F KetDBF=T FulRan=T
         Omega=  0.000000  0.000000  1.000000  0.000000  0.000000 ICntrl=    6100 IOpCl=  0
         NMat0=    1 NMatS0=    1 NMatT0=    0 NMatD0=    1 NMtDS0=    0 NMtDT0=    0
         I1Cent=           7 NGrid=        4358.
 Symmetry not used in FoFCou.
 Defaulting to unpruned grid for atomic number  78.
 Defaulting to unpruned grid for atomic number  78.
 Defaulting to unpruned grid for atomic number  78.
 Defaulting to unpruned grid for atomic number  78.
 Defaulting to unpruned grid for atomic number  78.
 Defaulting to unpruned grid for atomic number  78.
 Defaulting to unpruned grid for atomic number  78.
 Defaulting to unpruned grid for atomic number  78.
 Defaulting to unpruned grid for atomic number  78.
 Defaulting to unpruned grid for atomic number  78.
 Defaulting to unpruned grid for atomic number  78.
 Defaulting to unpruned grid for atomic number  78.
 Defaulting to unpruned grid for atomic number  78.
 Defaulting to unpruned grid for atomic number  78.
 Defaulting to unpruned grid for atomic number  78.
 Defaulting to unpruned grid for atomic number  78.
 Defaulting to unpruned grid for atomic number  78.
 Defaulting to unpruned grid for atomic number  78.
 Defaulting to unpruned grid for atomic number  78.
 Defaulting to unpruned grid for atomic number  78.
 Defaulting to unpruned grid for atomic number  78.
 Defaulting to unpruned grid for atomic number  78.
 Defaulting to unpruned grid for atomic number  78.
 Defaulting to unpruned grid for atomic number  78.
 Defaulting to unpruned grid for atomic number  78.
 Defaulting to unpruned grid for atomic number  78.
 Defaulting to unpruned grid for atomic number  78.
 Defaulting to unpruned grid for atomic number  78.
 Defaulting to unpruned grid for atomic number  78.
 Defaulting to unpruned grid for atomic number  78.
 Defaulting to unpruned grid for atomic number  78.
 Defaulting to unpruned grid for atomic number  78.
          There are     3 degrees of freedom in the 1st order CPHF.  IDoFFX=0.
      3 vectors produced by pass  0 Test12= 6.78D-12 3.33D-08 XBig12= 4.04D+02 3.10D+00.
 AX will form     3 AO Fock derivatives at one time.
 Inverted reduced A of dimension     3 with in-core refinement.
 Calculating GIAO nuclear magnetic shielding tensors.
 SCF GIAO Magnetic shielding tensor (ppm):
  1  P    Isotropic =   234.6820   Anisotropy =    28.1110
   XX=   232.3550   YX=   -26.3943   ZX=   -15.9450
   XY=   -11.4849   YY=   218.9980   ZY=     7.0964
   XZ=     8.7116   YZ=   -10.8474   ZZ=   252.6929
   Eigenvalues:   205.3167   245.3066   253.4226
  2  P    Isotropic =   225.9255   Anisotropy =    39.5831
   XX=   236.2997   YX=    -8.4210   ZX=   -32.0081
   XY=    -0.8601   YY=   221.6069   ZY=    11.6863
   XZ=     1.7914   YZ=    25.7805   ZZ=   219.8698
   Eigenvalues:   200.0846   225.3776   252.3142
  3  C    Isotropic =    42.4097   Anisotropy =   129.3512
   XX=    76.5915   YX=   -47.2734   ZX=   -25.8060
   XY=   -49.5067   YY=     1.4131   ZY=    37.3223
   XZ=   -21.0866   YZ=    69.5939   ZZ=    49.2244
   Eigenvalues:   -40.9519    39.5371   128.6438
  4  C    Isotropic =    13.1611   Anisotropy =   164.9819
   XX=    31.9035   YX=   -60.3716   ZX=   -35.2155
   XY=   -73.1953   YY=   -38.2762   ZY=    53.8805
   XZ=   -35.1373   YZ=    64.0123   ZZ=    45.8558
   Eigenvalues:   -88.0074     4.3415   123.1490
  5  C    Isotropic =    18.3969   Anisotropy =   197.3620
   XX=    48.5614   YX=   -26.6979   ZX=   -54.6188
   XY=   -37.3513   YY=   -22.8007   ZY=    88.2838
   XZ=   -84.3478   YZ=    85.6693   ZZ=    29.4301
   Eigenvalues:   -89.8043    -4.9765   149.9716
  6  C    Isotropic =    45.6003   Anisotropy =   115.4013
   XX=    88.2801   YX=   -18.4013   ZX=   -24.0358
   XY=   -25.7395   YY=     5.1102   ZY=    66.3372
   XZ=   -38.9855   YZ=    36.9238   ZZ=    43.4105
   Eigenvalues:   -30.8073    45.0737   122.5345
  7  C    Isotropic =   162.8468   Anisotropy =    28.9146
   XX=   171.1500   YX=    12.6105   ZX=     1.4566
   XY=    11.5451   YY=   164.3709   ZY=    12.7985
   XZ=    -0.8828   YZ=     9.3496   ZZ=   153.0195
   Eigenvalues:   144.6163   161.8009   182.1232
  8  C    Isotropic =   163.3602   Anisotropy =    30.4104
   XX=   163.9374   YX=   -10.5499   ZX=    10.1304
   XY=   -13.1030   YY=   153.7034   ZY=    -7.0927
   XZ=     8.9786   YZ=    -5.9076   ZZ=   172.4397
   Eigenvalues:   145.9328   160.5139   183.6338
  9  C    Isotropic =    51.1630   Anisotropy =   129.0088
   XX=    97.5312   YX=     3.9996   ZX=   -45.7936
   XY=     5.8969   YY=   -18.8203   ZY=    47.2533
   XZ=   -49.2589   YZ=    22.5755   ZZ=    74.7780
   Eigenvalues:   -33.7584    50.0786   137.1688
 10  C    Isotropic =    17.9295   Anisotropy =   158.5264
   XX=    59.6479   YX=     5.5798   ZX=   -64.9498
   XY=    11.6317   YY=   -51.2035   ZY=    53.3686
   XZ=   -68.4689   YZ=    42.3161   ZZ=    45.3441
   Eigenvalues:   -80.4308    10.6054   123.6137
 11  C    Isotropic =    19.9991   Anisotropy =   177.8542
   XX=    66.3473   YX=   -29.7116   ZX=   -55.0850
   XY=   -40.4492   YY=   -74.4968   ZY=    21.5209
   XZ=   -69.5979   YZ=    32.0338   ZZ=    68.1469
   Eigenvalues:   -83.8725     5.3014   138.5686
 12  C    Isotropic =    45.4079   Anisotropy =   121.5501
   XX=    94.3637   YX=   -14.8030   ZX=   -31.9341
   XY=   -16.9107   YY=   -28.8804   ZY=    15.7444
   XZ=   -42.4080   YZ=    33.8164   ZZ=    70.7406
   Eigenvalues:   -35.1209    44.9034   126.4413
 13  C    Isotropic =   164.4379   Anisotropy =    29.3937
   XX=   166.8775   YX=    -8.3517   ZX=     8.8709
   XY=    -8.0596   YY=   151.4115   ZY=    -8.9013
   XZ=     8.5904   YZ=    -5.6414   ZZ=   175.0246
   Eigenvalues:   147.4088   161.8711   184.0337
 14  C    Isotropic =   163.0907   Anisotropy =    32.5845
   XX=   164.7057   YX=    13.5061   ZX=     2.5613
   XY=    14.9454   YY=   169.1916   ZY=    10.9678
   XZ=     3.8857   YZ=     9.8285   ZZ=   155.3748
   Eigenvalues:   148.1490   156.3093   184.8137
 15  H    Isotropic =    24.1446   Anisotropy =     8.8834
   XX=    29.9851   YX=    -1.1224   ZX=     1.4246
   XY=     0.0759   YY=    22.5315   ZY=    -0.0209
   XZ=    -0.0056   YZ=     0.9308   ZZ=    19.9171
   Eigenvalues:    19.7792    22.5877    30.0668
 16  H    Isotropic =    23.8004   Anisotropy =    11.3182
   XX=    27.9579   YX=    -1.1943   ZX=     2.9441
   XY=    -2.9575   YY=    20.7124   ZY=    -1.7871
   XZ=     5.5321   YZ=    -4.1583   ZZ=    22.7310
   Eigenvalues:    18.4820    21.5734    31.3459
 17  H    Isotropic =    28.6214   Anisotropy =    10.5943
   XX=    35.5990   YX=    -1.0903   ZX=     1.3966
   XY=    -0.3045   YY=    26.5301   ZY=    -0.8172
   XZ=    -0.2668   YZ=    -0.5670   ZZ=    23.7350
   Eigenvalues:    23.5601    26.6198    35.6842
 18  H    Isotropic =    29.0658   Anisotropy =     6.1866
   XX=    30.2572   YX=     3.0657   ZX=     1.1569
   XY=     2.5348   YY=    30.2507   ZY=    -3.7958
   XZ=     2.0562   YZ=    -1.7178   ZZ=    26.6896
   Eigenvalues:    23.9216    30.0857    33.1902
 19  H    Isotropic =    29.3312   Anisotropy =     7.4248
   XX=    27.5828   YX=     0.7539   ZX=     1.9974
   XY=     1.9238   YY=    28.5112   ZY=     2.8714
   XZ=     3.2953   YZ=     1.4932   ZZ=    31.8996
   Eigenvalues:    26.2688    27.4437    34.2811
 20  H    Isotropic =    29.2399   Anisotropy =     7.6099
   XX=    26.5482   YX=     0.4922   ZX=     1.8004
   XY=     0.4998   YY=    28.5869   ZY=     1.4060
   XZ=     3.9949   YZ=     2.0639   ZZ=    32.5845
   Eigenvalues:    25.3700    28.0364    34.3132
 21  H    Isotropic =    28.9178   Anisotropy =     7.4563
   XX=    28.1327   YX=    -0.2207   ZX=     3.3123
   XY=     1.3369   YY=    30.5600   ZY=    -3.1580
   XZ=     2.9713   YZ=    -4.7913   ZZ=    28.0605
   Eigenvalues:    23.3547    29.5099    33.8887
 22  H    Isotropic =    28.8372   Anisotropy =     9.8531
   XX=    34.6668   YX=    -1.3012   ZX=     1.3030
   XY=    -2.8912   YY=    26.6037   ZY=    -1.6039
   XZ=     1.0717   YZ=    -1.3759   ZZ=    25.2411
   Eigenvalues:    24.2821    26.8236    35.4060
 23  H    Isotropic =    24.1882   Anisotropy =     9.1265
   XX=    28.7674   YX=     2.7555   ZX=     3.3622
   XY=     1.4167   YY=    22.6581   ZY=    -0.6398
   XZ=     2.9547   YZ=    -1.2361   ZZ=    21.1391
   Eigenvalues:    19.2103    23.0818    30.2725
 24  H    Isotropic =    23.5226   Anisotropy =    11.1903
   XX=    28.4206   YX=     2.5315   ZX=     1.7573
   XY=     4.8128   YY=    23.4414   ZY=     1.1428
   XZ=     2.6720   YZ=     2.2274   ZZ=    18.7058
   Eigenvalues:    18.0354    21.5496    30.9828
 25  H    Isotropic =    28.9447   Anisotropy =     9.7421
   XX=    35.2393   YX=     1.0632   ZX=     1.6728
   XY=    -0.5774   YY=    26.3103   ZY=    -1.1408
   XZ=     1.1703   YZ=    -0.9198   ZZ=    25.2843
   Eigenvalues:    24.4785    26.9160    35.4394
 26  H    Isotropic =    29.2055   Anisotropy =     6.1329
   XX=    28.4779   YX=    -0.5492   ZX=     3.6775
   XY=     0.5541   YY=    31.5941   ZY=    -1.2349
   XZ=     3.6066   YZ=    -3.2819   ZZ=    27.5446
   Eigenvalues:    23.9481    30.3744    33.2941
 27  H    Isotropic =    29.3032   Anisotropy =     7.8134
   XX=    26.3495   YX=     0.2253   ZX=     1.3829
   XY=     0.2349   YY=    28.0913   ZY=     1.0816
   XZ=     2.8012   YZ=     2.4080   ZZ=    33.4687
   Eigenvalues:    25.7520    27.6454    34.5121
 28  H    Isotropic =    29.2086   Anisotropy =     7.8396
   XX=    26.2720   YX=     0.6374   ZX=     0.7968
   XY=     1.8189   YY=    28.4693   ZY=     2.9926
   XZ=     2.1396   YZ=     2.0196   ZZ=    32.8846
   Eigenvalues:    25.7013    27.4896    34.4350
 29  H    Isotropic =    28.9534   Anisotropy =     7.1685
   XX=    27.7684   YX=     2.9913   ZX=     2.2256
   XY=     1.5626   YY=    32.8600   ZY=    -1.9785
   XZ=     3.1070   YZ=    -0.3416   ZZ=    26.2319
   Eigenvalues:    23.6406    29.4873    33.7324
 30  H    Isotropic =    29.0354   Anisotropy =     9.2642
   XX=    34.8128   YX=     1.0803   ZX=     1.6502
   XY=     2.0218   YY=    27.4805   ZY=    -0.0723
   XZ=     0.3801   YZ=    -0.5448   ZZ=    24.8127
   Eigenvalues:    24.6295    27.2651    35.2115
 31  Pt   Isotropic =  3151.2341   Anisotropy =  1792.5363
   XX=  4136.0488   YX=  -250.5081   ZX=  -674.5135
   XY=  -220.1476   YY=  3337.5804   ZY=  -283.0424
   XZ=  -671.5858   YZ=  -430.4262   ZZ=  1980.0732
   Eigenvalues:  1686.1544  3421.2897  4346.2583
 32  C    Isotropic =   126.6928   Anisotropy =    42.3932
   XX=   121.3213   YX=    -2.8719   ZX=   -13.9574
   XY=    -6.5989   YY=   115.6263   ZY=     7.7673
   XZ=   -21.9142   YZ=     5.8756   ZZ=   143.1307
   Eigenvalues:   111.0289   114.0944   154.9549
 33  C    Isotropic =   125.9984   Anisotropy =    44.7255
   XX=   116.1198   YX=    -7.1480   ZX=    -9.5100
   XY=    -6.2772   YY=   121.6031   ZY=    16.4096
   XZ=   -18.0693   YZ=    16.6452   ZZ=   140.2723
   Eigenvalues:   109.7103   112.4695   155.8154
 34  Sn   Isotropic =  2089.2473   Anisotropy =   905.5670
   XX=  1920.6453   YX=   141.9869   ZX=   -63.6182
   XY=   130.5066   YY=  2648.1830   ZY=  -149.9730
   XZ=   -76.9934   YZ=  -111.4625   ZZ=  1698.9136
   Eigenvalues:  1669.7447  1905.0386  2692.9586
 35  Cl   Isotropic =   736.2763   Anisotropy =   338.4652
   XX=   736.1887   YX=    79.1415   ZX=   101.7742
   XY=    85.3135   YY=   727.3391   ZY=   129.4897
   XZ=    91.8844   YZ=   178.5249   ZZ=   745.3013
   Eigenvalues:   581.6218   665.2874   961.9198
 36  Cl   Isotropic =   709.5677   Anisotropy =   331.1839
   XX=   746.4492   YX=  -166.3444   ZX=     7.4278
   XY=  -171.9611   YY=   765.2231   ZY=   -42.0412
   XZ=    19.9780   YZ=   -41.9907   ZZ=   617.0309
   Eigenvalues:   576.4742   621.8719   930.3570
 37  Cl   Isotropic =   714.5273   Anisotropy =   339.1812
   XX=   732.0017   YX=    34.8028   ZX=  -130.8778
   XY=    54.0067   YY=   640.9379   ZY=  -128.5743
   XZ=  -119.2481   YZ=  -150.3805   ZZ=   770.6425
   Eigenvalues:   545.3123   657.6216   940.6481
 38  Cl   Isotropic =   926.9699   Anisotropy =   650.7968
   XX=   682.1759   YX=    46.2369   ZX=   151.4608
   XY=    39.4896   YY=   818.5302   ZY=    96.1219
   XZ=   174.1067   YZ=   182.9107   ZZ=  1280.2037
   Eigenvalues:   640.3923   779.6830  1360.8345
 39  C    Isotropic =   149.2927   Anisotropy =    38.9436
   XX=   145.9065   YX=   -14.6124   ZX=     9.1417
   XY=   -11.8160   YY=   143.1704   ZY=   -12.3447
   XZ=    12.5076   YZ=   -14.0009   ZZ=   158.8013
   Eigenvalues:   130.8841   141.7390   175.2551
 40  H    Isotropic =    30.2220   Anisotropy =     7.0499
   XX=    31.2311   YX=    -2.1545   ZX=    -2.0884
   XY=    -2.9317   YY=    26.3287   ZY=     2.1788
   XZ=    -0.6093   YZ=     1.9788   ZZ=    33.1061
   Eigenvalues:    24.9931    30.7509    34.9219
 41  H    Isotropic =    29.6009   Anisotropy =     7.0614
   XX=    24.5112   YX=    -1.4432   ZX=    -2.1262
   XY=    -0.7102   YY=    34.0826   ZY=    -0.0482
   XZ=    -2.5591   YZ=    -1.7006   ZZ=    30.2088
   Eigenvalues:    23.5092    30.9849    34.3085
 42  H    Isotropic =    30.4764   Anisotropy =    10.8615
   XX=    26.8613   YX=    -1.0105   ZX=    -0.3575
   XY=    -1.0584   YY=    27.2873   ZY=     1.5169
   XZ=    -0.6817   YZ=     2.5102   ZZ=    37.2805
   Eigenvalues:    25.9403    27.7714    37.7174
 43  C    Isotropic =   155.0595   Anisotropy =    51.6385
   XX=   185.1802   YX=    -2.9872   ZX=   -17.2504
   XY=    -1.3971   YY=   140.4877   ZY=     7.1984
   XZ=   -11.2226   YZ=     1.8469   ZZ=   139.5105
   Eigenvalues:   133.3997   142.2936   189.4851
 44  H    Isotropic =    30.8244   Anisotropy =    12.4393
   XX=    31.3570   YX=    -3.1875   ZX=    -5.8081
   XY=    -2.1437   YY=    28.6538   ZY=     4.2499
   XZ=    -3.9655   YZ=     4.0817   ZZ=    32.4625
   Eigenvalues:    25.9027    27.4533    39.1173
 45  H    Isotropic =    30.2775   Anisotropy =     7.2833
   XX=    32.1804   YX=     3.2735   ZX=    -3.7373
   XY=     1.2307   YY=    29.6062   ZY=     1.8727
   XZ=    -4.1250   YZ=     0.5192   ZZ=    29.0460
   Eigenvalues:    25.1911    30.5085    35.1330
 46  H    Isotropic =    30.5129   Anisotropy =     7.9640
   XX=    33.5644   YX=    -4.6590   ZX=     1.1422
   XY=    -3.7654   YY=    27.9146   ZY=     0.8781
   XZ=    -0.3662   YZ=     1.6318   ZZ=    30.0598
   Eigenvalues:    25.3165    30.4000    35.8223
 47  C    Isotropic =   150.1553   Anisotropy =    39.4032
   XX=   139.7982   YX=     8.4652   ZX=    -1.0422
   XY=    13.6952   YY=   172.9748   ZY=    -4.3585
   XZ=     3.1132   YZ=    -0.1462   ZZ=   137.6927
   Eigenvalues:   135.2778   138.7639   176.4240
 48  H    Isotropic =    30.1690   Anisotropy =     8.3776
   XX=    27.2472   YX=    -2.3163   ZX=    -0.4144
   XY=    -2.5314   YY=    34.9327   ZY=    -2.1292
   XZ=     0.0267   YZ=     0.0478   ZZ=    28.3272
   Eigenvalues:    26.4218    28.3312    35.7541
 49  H    Isotropic =    29.2936   Anisotropy =     8.3376
   XX=    30.3097   YX=     0.1654   ZX=    -4.9550
   XY=     2.1474   YY=    29.3404   ZY=     3.2738
   XZ=    -4.9095   YZ=     4.3765   ZZ=    28.2308
   Eigenvalues:    22.2475    30.7814    34.8520
 50  H    Isotropic =    30.4826   Anisotropy =    11.0123
   XX=    26.9825   YX=     0.0598   ZX=    -0.5728
   XY=     0.0579   YY=    33.2357   ZY=     5.6779
   XZ=    -1.1583   YZ=     5.2749   ZZ=    31.2296
   Eigenvalues:    26.0949    27.5288    37.8241
 51  C    Isotropic =   148.8998   Anisotropy =    41.7324
   XX=   140.8663   YX=    -8.9710   ZX=     5.5660
   XY=    -9.1203   YY=   152.7918   ZY=   -18.1064
   XZ=    10.3038   YZ=   -21.4606   ZZ=   153.0415
   Eigenvalues:   132.9738   137.0043   176.7214
 52  H    Isotropic =    30.0009   Anisotropy =     8.2783
   XX=    27.0733   YX=     1.0366   ZX=    -2.3935
   XY=     1.5143   YY=    33.1151   ZY=    -1.9753
   XZ=    -2.1300   YZ=    -4.0591   ZZ=    29.8142
   Eigenvalues:    25.7736    28.7092    35.5198
 53  H    Isotropic =    29.9490   Anisotropy =     6.6663
   XX=    31.2169   YX=    -2.0091   ZX=    -2.7480
   XY=    -3.3885   YY=    25.7199   ZY=    -0.7701
   XZ=    -1.5005   YZ=    -1.5772   ZZ=    32.9101
   Eigenvalues:    24.1927    31.2611    34.3932
 54  H    Isotropic =    30.2534   Anisotropy =    11.3079
   XX=    26.8628   YX=    -0.4019   ZX=    -1.4800
   XY=    -0.7315   YY=    26.5462   ZY=    -1.6441
   XZ=    -2.0698   YZ=    -1.1553   ZZ=    37.3514
   Eigenvalues:    25.6980    27.2703    37.7921
 55  C    Isotropic =   147.9378   Anisotropy =    42.4980
   XX=   141.9978   YX=    14.7082   ZX=    -4.0467
   XY=    15.9695   YY=   168.1191   ZY=     7.5405
   XZ=     1.1960   YZ=     8.5210   ZZ=   133.6964
   Eigenvalues:   129.0313   138.5123   176.2697
 56  H    Isotropic =    30.2344   Anisotropy =     7.8332
   XX=    32.2861   YX=     1.9221   ZX=    -3.9698
   XY=     3.6804   YY=    27.8216   ZY=     1.7810
   XZ=    -3.6065   YZ=     2.2842   ZZ=    30.5954
   Eigenvalues:    24.3133    30.9333    35.4565
 57  H    Isotropic =    29.6770   Anisotropy =     6.2437
   XX=    27.0780   YX=    -0.5675   ZX=    -3.4575
   XY=    -1.1829   YY=    32.8850   ZY=    -2.7755
   XZ=    -2.7572   YZ=    -1.3831   ZZ=    29.0679
   Eigenvalues:    24.3618    30.8297    33.8395
 58  H    Isotropic =    30.2235   Anisotropy =    10.6043
   XX=    27.3840   YX=     0.0561   ZX=    -2.6865
   XY=    -0.1308   YY=    30.0230   ZY=     5.3147
   XZ=    -2.9496   YZ=     4.3528   ZZ=    33.2635
   Eigenvalues:    25.1088    28.2688    37.2931
 59  C    Isotropic =   155.3158   Anisotropy =    55.5854
   XX=   190.8283   YX=    -3.8944   ZX=   -12.2211
   XY=    -1.4348   YY=   134.7358   ZY=    -2.0352
   XZ=    -5.0653   YZ=    -0.0840   ZZ=   140.3832
   Eigenvalues:   134.1712   139.4034   192.3727
 60  H    Isotropic =    30.7078   Anisotropy =    12.5870
   XX=    32.9175   YX=    -1.4291   ZX=    -6.9513
   XY=    -0.9432   YY=    26.0404   ZY=     1.7775
   XZ=    -4.5180   YZ=     1.6337   ZZ=    33.1656
   Eigenvalues:    25.6488    27.3755    39.0992
 61  H    Isotropic =    30.3882   Anisotropy =     7.3222
   XX=    33.2924   YX=    -4.4354   ZX=     0.1392
   XY=    -3.2095   YY=    27.8539   ZY=    -0.9391
   XZ=    -1.2213   YZ=    -0.4175   ZZ=    30.0184
   Eigenvalues:    25.7139    30.1811    35.2697
 62  H    Isotropic =    30.4001   Anisotropy =     7.7174
   XX=    33.2250   YX=     4.6081   ZX=    -2.2189
   XY=     2.4239   YY=    28.7421   ZY=     1.5222
   XZ=    -2.6090   YZ=     1.0607   ZZ=    29.2332
   Eigenvalues:    25.3680    30.2873    35.5450
 End of Minotr Frequency-dependent properties file   721 does not exist.
 End of Minotr Frequency-dependent properties file   722 does not exist.
 Leave Link 1002 at Sat Jun 15 12:35:53 2019, MaxMem=13421772800 cpu:   39912.2
 (Enter /home/scr/programs/g09/l601.exe)
 Copying SCF densities to generalized density rwf, IOpCl= 0 IROHF=0.

 **********************************************************************

            Population analysis using the SCF density.

 **********************************************************************

 Orbital symmetries:
       Occupied  (A) (A) (A) (A) (A) (A) (A) (A) (A) (A) (A) (A)
                 (A) (A) (A) (A) (A) (A) (A) (A) (A) (A) (A) (A)
                 (A) (A) (A) (A) (A) (A) (A) (A) (A) (A) (A) (A)
                 (A) (A) (A) (A) (A) (A) (A) (A) (A) (A) (A) (A)
                 (A) (A) (A) (A) (A) (A) (A) (A) (A) (A) (A) (A)
                 (A) (A) (A) (A) (A) (A) (A) (A) (A) (A) (A) (A)
                 (A) (A) (A) (A) (A) (A) (A) (A) (A) (A) (A) (A)
                 (A) (A) (A) (A) (A) (A) (A) (A) (A) (A) (A) (A)
                 (A) (A) (A) (A) (A) (A) (A) (A) (A) (A) (A) (A)
                 (A) (A) (A) (A) (A) (A) (A) (A) (A) (A) (A) (A)
                 (A) (A) (A) (A) (A) (A) (A) (A) (A) (A) (A) (A)
                 (A) (A) (A) (A) (A) (A) (A) (A) (A) (A) (A) (A)
                 (A) (A) (A) (A) (A) (A) (A) (A) (A) (A) (A) (A)
                 (A) (A) (A) (A) (A) (A) (A) (A) (A) (A) (A) (A)
                 (A) (A) (A) (A) (A) (A) (A) (A) (A) (A) (A) (A)
                 (A) (A) (A) (A) (A) (A) (A) (A) (A) (A)
       Virtual   (A) (A) (A) (A) (A) (A) (A) (A) (A) (A) (A) (A)
                 (A) (A) (A) (A) (A) (A) (A) (A) (A) (A) (A) (A)
                 (A) (A) (A) (A) (A) (A) (A) (A) (A) (A) (A) (A)
                 (A) (A) (A) (A) (A) (A) (A) (A) (A) (A) (A) (A)
                 (A) (A) (A) (A) (A) (A) (A) (A) (A) (A) (A) (A)
                 (A) (A) (A) (A) (A) (A) (A) (A) (A) (A) (A) (A)
                 (A) (A) (A) (A) (A) (A) (A) (A) (A) (A) (A) (A)
                 (A) (A) (A) (A) (A) (A) (A) (A) (A) (A) (A) (A)
                 (A) (A) (A) (A) (A) (A) (A) (A) (A) (A) (A) (A)
                 (A) (A) (A) (A) (A) (A) (A) (A) (A) (A) (A) (A)
                 (A) (A) (A) (A) (A) (A) (A) (A) (A) (A) (A) (A)
                 (A) (A) (A) (A) (A) (A) (A) (A) (A) (A) (A) (A)
                 (A) (A) (A) (A) (A) (A) (A) (A) (A) (A) (A) (A)
                 (A) (A) (A) (A) (A) (A) (A) (A) (A) (A) (A) (A)
                 (A) (A) (A) (A) (A) (A) (A) (A) (A) (A) (A) (A)
                 (A) (A) (A) (A) (A) (A) (A) (A) (A) (A) (A) (A)
                 (A) (A) (A) (A) (A) (A) (A) (A) (A) (A) (A) (A)
                 (A) (A) (A) (A) (A) (A) (A) (A) (A) (A) (A) (A)
                 (A) (A) (A) (A) (A) (A) (A) (A) (A) (A) (A) (A)
                 (A) (A) (A) (A) (A) (A) (A) (A) (A) (A) (A) (A)
                 (A) (A) (A) (A) (A) (A) (A) (A) (A) (A) (A) (A)
                 (A) (A) (A) (A) (A) (A) (A) (A) (A) (A) (A) (A)
                 (A) (A) (A) (A) (A) (A) (A) (A) (A) (A) (A) (A)
                 (A) (A) (A) (A) (A) (A) (A) (A) (A) (A) (A) (A)
                 (A) (A) (A) (A) (A) (A) (A) (A) (A) (A) (A) (A)
                 (A) (A) (A) (A) (A) (A) (A) (A) (A) (A) (A) (A)
                 (A) (A) (A) (A) (A) (A) (A) (A) (A) (A) (A) (A)
                 (A) (A) (A) (A) (A) (A) (A) (A) (A) (A) (A) (A)
                 (A) (A) (A) (A) (A) (A) (A) (A) (A) (A) (A) (A)
                 (A) (A) (A) (A) (A) (A) (A) (A) (A) (A) (A) (A)
                 (A) (A) (A) (A) (A) (A) (A) (A) (A) (A) (A) (A)
                 (A) (A) (A) (A) (A) (A) (A) (A) (A) (A) (A) (A)
                 (A) (A) (A) (A) (A) (A) (A) (A) (A) (A) (A) (A)
                 (A) (A) (A) (A) (A) (A) (A) (A) (A) (A) (A) (A)
                 (A) (A) (A) (A) (A) (A) (A) (A) (A) (A) (A) (A)
[...]
 Alpha virt. eigenvalues --    0.51805   0.52007   0.52170   0.52547   0.52923
 Alpha virt. eigenvalues --    0.53196   0.53449   0.53664   0.54031   0.54113
 Alpha virt. eigenvalues --    0.54325   0.54773   0.54963   0.55160   0.55353
 Alpha virt. eigenvalues --    0.55555   0.55741   0.56247   0.56433   0.56711
 Alpha virt. eigenvalues --    0.56731   0.57068   0.57346   0.57547   0.57917
 Alpha virt. eigenvalues --    0.58013   0.58344   0.58418   0.58996   0.59255
 Alpha virt. eigenvalues --    0.59402   0.59423   0.59761   0.59898   0.60020
 Alpha virt. eigenvalues --    0.60224   0.60465   0.60870   0.60925   0.61239
 Alpha virt. eigenvalues --    0.61471   0.61712   0.61838   0.62086   0.62229
 Alpha virt. eigenvalues --    0.62531   0.62640   0.63026   0.63230   0.63300
 Alpha virt. eigenvalues --    0.63648   0.63854   0.64018   0.64136   0.64229
 Alpha virt. eigenvalues --    0.64415   0.64836   0.65069   0.65244   0.65463
 Alpha virt. eigenvalues --    0.65830   0.65992   0.66161   0.66412   0.66470
 Alpha virt. eigenvalues --    0.66792   0.66962   0.67017   0.67240   0.67541
 Alpha virt. eigenvalues --    0.67831   0.68032   0.68296   0.68457   0.68671
 Alpha virt. eigenvalues --    0.68680   0.68904   0.69231   0.69426   0.69554
 Alpha virt. eigenvalues --    0.69624   0.69962   0.70143   0.70567   0.70663
 Alpha virt. eigenvalues --    0.70950   0.71016   0.71498   0.71630   0.71858
 Alpha virt. eigenvalues --    0.72241   0.72682   0.72777   0.73035   0.73248
 Alpha virt. eigenvalues --    0.73703   0.73888   0.74282   0.74461   0.74513
 Alpha virt. eigenvalues --    0.74790   0.74982   0.75315   0.75511   0.75676
 Alpha virt. eigenvalues --    0.75783   0.76025   0.76721   0.76889   0.77043
 Alpha virt. eigenvalues --    0.77197   0.77282   0.77551   0.77668   0.77899
 Alpha virt. eigenvalues --    0.78127   0.78339   0.78911   0.79099   0.79324
 Alpha virt. eigenvalues --    0.79657   0.79773   0.80124   0.80658   0.80880
 Alpha virt. eigenvalues --    0.81071   0.81399   0.81879   0.82023   0.82358
 Alpha virt. eigenvalues --    0.82495   0.82809   0.83031   0.83248   0.83322
 Alpha virt. eigenvalues --    0.83597   0.83896   0.84639   0.84959   0.85302
 Alpha virt. eigenvalues --    0.85469   0.85699   0.86123   0.86398   0.86548
 Alpha virt. eigenvalues --    0.86870   0.87198   0.87530   0.87732   0.87875
 Alpha virt. eigenvalues --    0.88095   0.88221   0.88513   0.89100   0.89732
 Alpha virt. eigenvalues --    0.89956   0.90292   0.90637   0.91057   0.91219
 Alpha virt. eigenvalues --    0.91348   0.91862   0.92278   0.92577   0.92797
 Alpha virt. eigenvalues --    0.92891   0.93526   0.93905   0.94101   0.94287
 Alpha virt. eigenvalues --    0.94502   0.94672   0.95034   0.95508   0.95693
 Alpha virt. eigenvalues --    0.96515   0.97233   0.97690   0.97789   0.98239
 Alpha virt. eigenvalues --    0.98489   0.98790   0.98883   0.99273   0.99406
 Alpha virt. eigenvalues --    1.00241   1.00324   1.00745   1.00865   1.01626
 Alpha virt. eigenvalues --    1.01694   1.02280   1.02416   1.02691   1.02847
 Alpha virt. eigenvalues --    1.02988   1.03869   1.04012   1.04364   1.04510
 Alpha virt. eigenvalues --    1.04782   1.05141   1.05208   1.05679   1.05942
 Alpha virt. eigenvalues --    1.06136   1.06610   1.07263   1.07592   1.07970
 Alpha virt. eigenvalues --    1.08073   1.08201   1.08517   1.09088   1.09602
 Alpha virt. eigenvalues --    1.09686   1.10062   1.10641   1.10841   1.11237
 Alpha virt. eigenvalues --    1.11469   1.11639   1.12033   1.12064   1.12688
 Alpha virt. eigenvalues --    1.13366   1.13490   1.13739   1.13976   1.14255
 Alpha virt. eigenvalues --    1.14579   1.15102   1.15585   1.16042   1.16315
 Alpha virt. eigenvalues --    1.16765   1.17123   1.17408   1.17888   1.18358
 Alpha virt. eigenvalues --    1.18620   1.19594   1.19851   1.20190   1.20603
 Alpha virt. eigenvalues --    1.21277   1.21757   1.21783   1.22168   1.22563
 Alpha virt. eigenvalues --    1.22791   1.22938   1.24056   1.24547   1.25066
 Alpha virt. eigenvalues --    1.25247   1.25858   1.26055   1.26384   1.26795
 Alpha virt. eigenvalues --    1.27381   1.27635   1.28072   1.28808   1.28956
 Alpha virt. eigenvalues --    1.29837   1.30114   1.30567   1.30904   1.31372
 Alpha virt. eigenvalues --    1.31972   1.32602   1.33185   1.33680   1.34080
 Alpha virt. eigenvalues --    1.34343   1.34710   1.35137   1.35691   1.36121
 Alpha virt. eigenvalues --    1.36351   1.36536   1.36673   1.37331   1.37549
 Alpha virt. eigenvalues --    1.37861   1.37974   1.38521   1.38661   1.39144
 Alpha virt. eigenvalues --    1.39892   1.40065   1.40616   1.41044   1.41211
 Alpha virt. eigenvalues --    1.41567   1.41801   1.42471   1.42577   1.42969
 Alpha virt. eigenvalues --    1.43526   1.43957   1.44315   1.44892   1.45125
 Alpha virt. eigenvalues --    1.45285   1.45553   1.45883   1.46412   1.46944
 Alpha virt. eigenvalues --    1.47152   1.47817   1.47985   1.48156   1.48511
 Alpha virt. eigenvalues --    1.49149   1.49595   1.49937   1.50423   1.50634
 Alpha virt. eigenvalues --    1.50957   1.51474   1.51712   1.52084   1.52803
 Alpha virt. eigenvalues --    1.53552   1.54025   1.54275   1.54358   1.54763
 Alpha virt. eigenvalues --    1.55554   1.56729   1.56872   1.57931   1.58639
 Alpha virt. eigenvalues --    1.59148   1.59549   1.60550   1.61095   1.62256
 Alpha virt. eigenvalues --    1.62720   1.63153   1.63849   1.64116   1.64337
 Alpha virt. eigenvalues --    1.65067   1.65465   1.66343   1.66799   1.67568
 Alpha virt. eigenvalues --    1.67661   1.68461   1.68786   1.69117   1.69152
 Alpha virt. eigenvalues --    1.69631   1.70032   1.70463   1.71200   1.71461
 Alpha virt. eigenvalues --    1.72011   1.72361   1.73337   1.74028   1.74456
 Alpha virt. eigenvalues --    1.75059   1.76035   1.76217   1.76947   1.77307
 Alpha virt. eigenvalues --    1.78155   1.78444   1.79753   1.80181   1.80793
 Alpha virt. eigenvalues --    1.81495   1.82050   1.82287   1.82484   1.83026
 Alpha virt. eigenvalues --    1.83364   1.83488   1.84076   1.84381   1.84714
 Alpha virt. eigenvalues --    1.84975   1.86427   1.87012   1.87934   1.88418
 Alpha virt. eigenvalues --    1.88922   1.89245   1.89943   1.90294   1.90636
 Alpha virt. eigenvalues --    1.91201   1.91729   1.92610   1.93388   1.93806
 Alpha virt. eigenvalues --    1.94208   1.94276   1.94663   1.94915   1.95315
 Alpha virt. eigenvalues --    1.95719   1.95851   1.96206   1.96505   1.96799
 Alpha virt. eigenvalues --    1.97805   1.98475   1.99169   1.99702   2.00125
 Alpha virt. eigenvalues --    2.00638   2.01522   2.01892   2.02115   2.02874
 Alpha virt. eigenvalues --    2.03560   2.03942   2.04119   2.04334   2.04770
 Alpha virt. eigenvalues --    2.05557   2.05967   2.06145   2.06912   2.07791
 Alpha virt. eigenvalues --    2.07918   2.08507   2.09221   2.09888   2.10743
 Alpha virt. eigenvalues --    2.10816   2.11259   2.12109   2.13069   2.13920
 Alpha virt. eigenvalues --    2.15082   2.15639   2.16242   2.16713   2.17263
 Alpha virt. eigenvalues --    2.17343   2.18835   2.19793   2.20014   2.20239
 Alpha virt. eigenvalues --    2.20555   2.21286   2.21976   2.22623   2.23003
 Alpha virt. eigenvalues --    2.23497   2.24783   2.25652   2.25791   2.27189
 Alpha virt. eigenvalues --    2.27384   2.27968   2.28266   2.28594   2.28811
 Alpha virt. eigenvalues --    2.29205   2.29460   2.29721   2.29856   2.30326
 Alpha virt. eigenvalues --    2.30590   2.31133   2.32094   2.32665   2.33494
 Alpha virt. eigenvalues --    2.34002   2.34661   2.35825   2.36256   2.36920
 Alpha virt. eigenvalues --    2.37318   2.37943   2.38052   2.38579   2.38947
 Alpha virt. eigenvalues --    2.39453   2.39754   2.40077   2.40630   2.40747
 Alpha virt. eigenvalues --    2.41678   2.42234   2.42917   2.43083   2.43578
 Alpha virt. eigenvalues --    2.44564   2.44825   2.45187   2.45580   2.45881
 Alpha virt. eigenvalues --    2.46275   2.46506   2.47184   2.47419   2.47724
 Alpha virt. eigenvalues --    2.48382   2.48434   2.48895   2.49416   2.49720
 Alpha virt. eigenvalues --    2.50397   2.50703   2.50828   2.51331   2.52107
 Alpha virt. eigenvalues --    2.52751   2.53697   2.54707   2.55537   2.55546
 Alpha virt. eigenvalues --    2.56271   2.56938   2.57253   2.57923   2.58656
 Alpha virt. eigenvalues --    2.59036   2.59351   2.61628   2.62013   2.62191
 Alpha virt. eigenvalues --    2.63072   2.63207   2.63456   2.64077   2.64438
 Alpha virt. eigenvalues --    2.64930   2.65369   2.65774   2.66052   2.67085
 Alpha virt. eigenvalues --    2.67601   2.71081   2.71936   2.72455   2.72611
 Alpha virt. eigenvalues --    2.72903   2.73549   2.74027   2.74432   2.76998
 Alpha virt. eigenvalues --    2.77356   2.77760   2.78202   2.78909   2.79102
 Alpha virt. eigenvalues --    2.80176   2.80612   2.82744   2.83991   2.84970
 Alpha virt. eigenvalues --    2.85237   2.87968   2.88815   2.89040   2.89435
 Alpha virt. eigenvalues --    2.91463   2.93241   3.02354   3.02736   3.04038
 Alpha virt. eigenvalues --    3.04339   3.04880   3.05908   3.07087   3.07394
 Alpha virt. eigenvalues --    3.08363   3.09006   3.09458   3.10162   3.10919
 Alpha virt. eigenvalues --    3.11890   3.12809   3.12962   3.13549   3.14217
 Alpha virt. eigenvalues --    3.14527   3.15167   3.15482   3.16595   3.17054
 Alpha virt. eigenvalues --    3.17521   3.17822   3.18331   3.18425   3.18831
 Alpha virt. eigenvalues --    3.18955   3.19600   3.19834   3.20397   3.20933
 Alpha virt. eigenvalues --    3.21221   3.21953   3.22065   3.22643   3.24230
 Alpha virt. eigenvalues --    3.24646   3.25445   3.25567   3.26807   3.27603
 Alpha virt. eigenvalues --    3.33504   3.34083   3.35215   3.35715   3.36711
 Alpha virt. eigenvalues --    3.39414   3.40769   3.41829   3.44804   3.45256
 Alpha virt. eigenvalues --    3.46096   3.46632   3.47449   3.51486   3.53674
 Alpha virt. eigenvalues --    3.62322   3.69443   3.71767   3.74488   3.83932
 Alpha virt. eigenvalues --    3.90472   3.92143   3.93503   3.97012   4.04959
 Alpha virt. eigenvalues --    4.20095   4.22052   4.22497   4.23265   4.26302
 Alpha virt. eigenvalues --    4.27856   4.33247   4.33583   4.35415   4.36939
 Alpha virt. eigenvalues --    4.37951   4.40133   4.41158   4.42175   4.42359
 Alpha virt. eigenvalues --    4.42841   4.43501   4.48894   4.50125   4.54598
 Alpha virt. eigenvalues --    4.55097   4.74441   4.75167   5.47120   5.60784
 Alpha virt. eigenvalues --    5.63181   5.75578   5.88058   6.11507   6.65985
 Alpha virt. eigenvalues --    6.66678   6.71447   6.75402   6.76586   6.77038
 Alpha virt. eigenvalues --    6.78149   6.78472   6.78797   6.79089   6.79791
 Alpha virt. eigenvalues --    6.79988   6.81604   6.82360   6.82952   6.83452
 Alpha virt. eigenvalues --    6.83731   6.84438   6.84707   6.85892   6.86479
 Alpha virt. eigenvalues --    6.87695   6.89292   6.90735   6.92110   6.92804
 Alpha virt. eigenvalues --    6.93012   6.93570   6.94466   6.97677   6.98317
 Alpha virt. eigenvalues --    7.01833   7.02765   7.03752   7.04196   7.04768
 Alpha virt. eigenvalues --    7.05521   7.07308   7.08875   7.65433   7.66814
 Alpha virt. eigenvalues --    7.67997   7.70730   7.76528   7.76954   8.47695
 Alpha virt. eigenvalues --    8.48466   8.48934   8.49825   8.50400   8.50785
 Alpha virt. eigenvalues --    8.51722   8.54925   8.60559   8.96931   9.83562
 Alpha virt. eigenvalues --    9.84035   9.86098   9.88497   9.89241   9.90678
 Alpha virt. eigenvalues --    9.91341   9.93411   9.96088  10.01044  10.02327
 Alpha virt. eigenvalues --   10.05409  10.05800  10.11163  10.12544  10.14887
 Alpha virt. eigenvalues --   10.23830  14.03522  14.18265  15.62155  16.71543
 Alpha virt. eigenvalues --   16.86823  16.92452  16.99697  17.01893  17.02509
 Alpha virt. eigenvalues --   17.10487  17.10925  17.12206  17.13182  17.13901
 Alpha virt. eigenvalues --   17.15598  17.16213  17.17444  17.18609  17.20064
 Alpha virt. eigenvalues --   17.20505  17.21734  17.29046  17.29707  17.36845
 Alpha virt. eigenvalues --   17.38252  17.39209  17.40224  20.98935  21.12414
 Alpha virt. eigenvalues --   21.33331  25.45983  25.56490  25.57759  26.13819
 Alpha virt. eigenvalues --   31.66355  31.69172  31.72802  31.74865  31.79040
 Alpha virt. eigenvalues --   42.92873  42.97062  43.03684  43.07889  43.13242
 Alpha virt. eigenvalues --   61.75738  61.88513  62.99220  78.03873  78.17513
 Alpha virt. eigenvalues --   78.22276  78.29679  82.18219  86.11589  86.23027
 Alpha virt. eigenvalues --   86.39376  89.28090  89.28654  89.35713  89.36215
 Alpha virt. eigenvalues --   89.38073  89.39151  89.39920  89.41450  89.42763
 Alpha virt. eigenvalues --   89.43551  89.44748  89.46191  89.46798  89.47794
 Alpha virt. eigenvalues --   89.53920  89.54444  89.61174  89.62433  89.67003
 Alpha virt. eigenvalues --   89.67929 121.81317 121.88805 121.89781 239.17092
 Alpha virt. eigenvalues --  257.29083 332.08305 332.21764 428.72369 428.81465
 Alpha virt. eigenvalues --  428.94134 431.65421 431.79752 431.84796 431.92371
 Alpha virt. eigenvalues --  590.18764 590.24550 590.25302 772.96810 839.57071
 Alpha virt. eigenvalues -- 2068.569062529.947115495.37025********************
 Alpha virt. eigenvalues -- **********
          Condensed to atoms (all electrons):
 Mulliken atomic charges:
              1
     1  P   -0.890029
     2  P   -0.629981
     3  C    0.262263
     4  C   -0.303871
     5  C   -0.444261
     6  C    0.353380
     7  C   -0.125402
     8  C   -0.149860
     9  C    0.231718
    10  C   -0.430847
    11  C   -0.258986
    12  C    0.235678
    13  C   -0.149407
    14  C   -0.167220
    15  H    0.097467
    16  H    0.116489
    17  H    0.140417
    18  H    0.124742
    19  H    0.135227
    20  H    0.138454
    21  H    0.131831
    22  H    0.139928
    23  H    0.091515
    24  H    0.111896
    25  H    0.141382
    26  H    0.127997
    27  H    0.140351
    28  H    0.140684
    29  H    0.132484
    30  H    0.141141
    31  Pt   0.787175
    32  C   -0.693536
    33  C   -0.675820
    34  Sn   0.307089
    35  Cl  -0.233128
    36  Cl  -0.183471
    37  Cl  -0.218242
    38  Cl  -0.461007
    39  C    0.049827
    40  H    0.057933
    41  H    0.084771
    42  H    0.116739
    43  C   -0.054425
    44  H    0.124689
    45  H    0.103886
    46  H    0.102083
    47  C    0.014896
    48  H    0.097839
    49  H    0.074763
    50  H    0.120304
    51  C    0.030516
    52  H    0.098049
    53  H    0.065274
    54  H    0.118580
    55  C    0.037848
    56  H    0.053891
    57  H    0.084834
    58  H    0.118697
    59  C   -0.048796
    60  H    0.127554
    61  H    0.102124
    62  H    0.103885
 Sum of Mulliken atomic charges =   0.00000
 Mulliken charges with hydrogens summed into heavy atoms:
              1
     1  P   -0.890029
     2  P   -0.629981
     3  C    0.359731
     4  C   -0.303871
     5  C   -0.444261
     6  C    0.469869
     7  C    0.274984
     8  C    0.260353
     9  C    0.323233
    10  C   -0.430847
    11  C   -0.258986
    12  C    0.347573
    13  C    0.260323
    14  C    0.247089
    31  Pt   0.787175
    32  C   -0.693536
    33  C   -0.675820
    34  Sn   0.307089
    35  Cl  -0.233128
    36  Cl  -0.183471
    37  Cl  -0.218242
    38  Cl  -0.461007
    39  C    0.309269
    43  C    0.276233
    47  C    0.307802
    51  C    0.312419
    55  C    0.295271
    59  C    0.284768
 Sum of Mulliken charges with hydrogens summed into heavy atoms =   0.00000
 Electronic spatial extent (au):  <R**2>=          17431.8605
 Charge=              0.0000 electrons
 Dipole moment (field-independent basis, Debye):
    X=             -1.4128    Y=             -7.1603    Z=             -0.0498  Tot=              7.2986
 Quadrupole moment (field-independent basis, Debye-Ang):
   XX=           -200.3297   YY=           -293.2132   ZZ=           -249.2534
   XY=             -3.3782   XZ=              8.4275   YZ=             12.0295
 Traceless Quadrupole moment (field-independent basis, Debye-Ang):
   XX=             47.2691   YY=            -45.6145   ZZ=             -1.6547
   XY=             -3.3782   XZ=              8.4275   YZ=             12.0295
 Octapole moment (field-independent basis, Debye-Ang**2):
  XXX=             -2.1185  YYY=            -50.2045  ZZZ=             15.0612  XYY=             -7.0487
  XXY=            -57.6018  XXZ=             10.1647  XZZ=            -16.5462  YZZ=            -24.3819
  YYZ=            -10.8417  XYZ=            -13.2780
 Hexadecapole moment (field-independent basis, Debye-Ang**3):
 XXXX=         -11576.9011 YYYY=          -6622.4467 ZZZZ=          -4113.6876 XXXY=            170.2359
 XXXZ=            481.3647 YYYX=             40.8765 YYYZ=             27.9660 ZZZX=              8.4204
 ZZZY=             44.4800 XXYY=          -3084.0034 XXZZ=          -2598.7856 YYZZ=          -1775.8313
 XXYZ=             22.7834 YYXZ=             20.9222 ZZXY=            -58.8103
 N-N= 8.682909166339D+03 E-N=-7.982758519253D+04  KE= 2.599155853222D+04
 Calculating spin-rotation constants.
 Leave Link  601 at Sat Jun 15 12:45:02 2019, MaxMem=13421772800 cpu:   17006.5
 (Enter /home/scr/programs/g09/l9999.exe)
 1\1\GINC-NEQC33\SP\RPBEPBE\Gen\C20H34Cl4P2Pt1Sn1\GUEST1\15-Jun-2019\0\
 \#PBEPBE/gen scf=(maxcycle=500,conver=4) NMR=GIAO Scrf=(solvent=Dichlo
 romethane)\\estrutura 57\\0,1\P,0,2.215184,-1.039529,-0.323836\P,0,-2.
 441729,-0.451579,0.537821\C,0,3.427028,0.305351,-0.232405\C,0,4.317838
 ,0.065775,0.76006\C,0,4.098611,-1.232247,1.470315\C,0,3.050897,-1.9489
 87,0.994915\C,0,5.434674,0.987903,1.149565\C,0,4.979432,-1.655907,2.60
 8382\C,0,-3.436322,0.484315,-0.652909\C,0,-4.28601,-0.34416,-1.307073\
 C,0,-4.217306,-1.768415,-0.852502\C,0,-3.310657,-1.986989,0.129224\C,0
 ,-5.226945,0.081094,-2.395285\C,0,-5.088784,-2.825163,-1.464937\H,0,3.
 424167,1.187005,-0.872845\H,0,2.699519,-2.899107,1.393875\H,0,6.412384
 ,0.484329,1.066986\H,0,5.451582,1.88576,0.516581\H,0,5.332173,1.308505
 ,2.200176\H,0,4.947592,-0.919442,3.427746\H,0,4.673912,-2.631406,3.008
 756\H,0,6.032488,-1.726312,2.289873\H,0,-3.325521,1.550733,-0.844935\H
 ,0,-3.08353,-2.952581,0.576569\H,0,-6.27409,-0.124994,-2.115112\H,0,-5
 .131524,1.154967,-2.610465\H,0,-5.034622,-0.478345,-3.327173\H,0,-4.88
 3025,-2.93163,-2.543791\H,0,-4.930295,-3.801388,-0.986082\H,0,-6.15571
 9,-2.561786,-1.372734\Pt,0,-0.09259,-0.590235,0.147481\C,0,-2.937967,0
 .066245,2.302186\C,0,2.479023,-1.934296,-1.989598\Sn,0,0.213695,1.9408
 4,-0.348399\Cl,0,1.38506,3.085947,1.429202\Cl,0,-1.599043,3.530693,-0.
 626593\Cl,0,1.510283,2.661976,-2.271193\Cl,0,-0.227268,-2.907847,0.913
 008\C,0,1.738683,-1.133555,-3.075611\H,0,0.653093,-1.105401,-2.884938\
 H,0,2.098033,-0.095237,-3.150963\H,0,1.901304,-1.619466,-4.052524\C,0,
 3.984956,-1.999682,-2.299805\H,0,4.127874,-2.56445,-3.23637\H,0,4.4266
 31,-1.000432,-2.436357\H,0,4.544005,-2.522152,-1.506387\C,0,1.902411,-
 3.357611,-1.900502\H,0,2.430767,-3.972399,-1.1555\H,0,0.835496,-3.3536
 01,-1.640638\H,0,2.019953,-3.844234,-2.88435\C,0,-2.35216,-0.960495,3.
 287605\H,0,-2.765488,-1.968166,3.128918\H,0,-1.256739,-1.023904,3.2094
 99\H,0,-2.605563,-0.649985,4.31518\C,0,-2.352202,1.460011,2.587379\H,0
 ,-1.25143,1.45162,2.583097\H,0,-2.697558,2.218018,1.868173\H,0,-2.6737
 73,1.783207,3.591311\C,0,-4.471185,0.102397,2.415759\H,0,-4.744671,0.3
 62052,3.452184\H,0,-4.914832,0.859214,1.752002\H,0,-4.924747,-0.872654
 ,2.183115\\Version=EM64L-G09RevA.02\State=1-A\HF=-26395.4025751\RMSD=5
 .496e-05\Dipole=-0.5558523,-2.8170888,-0.019582\Quadrupole=35.1434229,
 -33.913231,-1.2301919,-2.5116072,6.2656643,8.9436248\PG=C01 [X(C20H34C
 l4P2Pt1Sn1)]\\@


 FRICTION IS A DRAG,
 AND ENTROPY AIN'T WHAT IT USED TO BE.
 Job cpu time:  0 days 22 hours 36 minutes 29.7 seconds.
 File lengths (MBytes):  RWF=   1197 Int=      0 D2E=      0 Chk=     88 Scr=      1
 Normal termination of Gaussian 09 at Sat Jun 15 12:45:03 2019.
