 Entering Gaussian System, Link 0=g09
 Input=estrutura7.com
 Output=estrutura7.log
 Initial command:
 /scr/programs/g09/l1.exe "/scr/diego/Gau-13864.inp" -scrdir="/scr/diego/"
 Entering Link 1 = /scr/programs/g09/l1.exe PID=     13865.
  
 Copyright (c) 1988,1990,1992,1993,1995,1998,2003,2009,2013,
            Gaussian, Inc.  All Rights Reserved.
  
 This is part of the Gaussian(R) 09 program.  It is based on
 the Gaussian(R) 03 system (copyright 2003, Gaussian, Inc.),
 the Gaussian(R) 98 system (copyright 1998, Gaussian, Inc.),
 the Gaussian(R) 94 system (copyright 1995, Gaussian, Inc.),
 the Gaussian 92(TM) system (copyright 1992, Gaussian, Inc.),
 the Gaussian 90(TM) system (copyright 1990, Gaussian, Inc.),
 the Gaussian 88(TM) system (copyright 1988, Gaussian, Inc.),
 the Gaussian 86(TM) system (copyright 1986, Carnegie Mellon
 University), and the Gaussian 82(TM) system (copyright 1983,
 Carnegie Mellon University). Gaussian is a federally registered
 trademark of Gaussian, Inc.
  
 This software contains proprietary and confidential information,
 including trade secrets, belonging to Gaussian, Inc.
  
 This software is provided under written license and may be
 used, copied, transmitted, or stored only in accord with that
 written license.
  
 The following legend is applicable only to US Government
 contracts under FAR:
  
                    RESTRICTED RIGHTS LEGEND
  
 Use, reproduction and disclosure by the US Government is
 subject to restrictions as set forth in subparagraphs (a)
 and (c) of the Commercial Computer Software - Restricted
 Rights clause in FAR 52.227-19.
  
 Gaussian, Inc.
 340 Quinnipiac St., Bldg. 40, Wallingford CT 06492
  
  
 ---------------------------------------------------------------
 Warning -- This program may not be used in any manner that
 competes with the business of Gaussian, Inc. or will provide
 assistance to any competitor of Gaussian, Inc.  The licensee
 of this program is prohibited from giving any competitor of
 Gaussian, Inc. access to this program.  By using this program,
 the user acknowledges that Gaussian, Inc. is engaged in the
 business of creating and licensing software in the field of
 computational chemistry and represents and warrants to the
 licensee that it is not a competitor of Gaussian, Inc. and that
 it will not use this program in any manner prohibited above.
 ---------------------------------------------------------------
  

 Cite this work as:
 Gaussian 09, Revision D.01,
 M. J. Frisch, G. W. Trucks, H. B. Schlegel, G. E. Scuseria, 
 M. A. Robb, J. R. Cheeseman, G. Scalmani, V. Barone, B. Mennucci, 
 G. A. Petersson, H. Nakatsuji, M. Caricato, X. Li, H. P. Hratchian, 
 A. F. Izmaylov, J. Bloino, G. Zheng, J. L. Sonnenberg, M. Hada, 
 M. Ehara, K. Toyota, R. Fukuda, J. Hasegawa, M. Ishida, T. Nakajima, 
 Y. Honda, O. Kitao, H. Nakai, T. Vreven, J. A. Montgomery, Jr., 
 J. E. Peralta, F. Ogliaro, M. Bearpark, J. J. Heyd, E. Brothers, 
 K. N. Kudin, V. N. Staroverov, T. Keith, R. Kobayashi, J. Normand, 
 K. Raghavachari, A. Rendell, J. C. Burant, S. S. Iyengar, J. Tomasi, 
 M. Cossi, N. Rega, J. M. Millam, M. Klene, J. E. Knox, J. B. Cross, 
 V. Bakken, C. Adamo, J. Jaramillo, R. Gomperts, R. E. Stratmann, 
 O. Yazyev, A. J. Austin, R. Cammi, C. Pomelli, J. W. Ochterski, 
 R. L. Martin, K. Morokuma, V. G. Zakrzewski, G. A. Voth, 
 P. Salvador, J. J. Dannenberg, S. Dapprich, A. D. Daniels, 
 O. Farkas, J. B. Foresman, J. V. Ortiz, J. Cioslowski, 
 and D. J. Fox, Gaussian, Inc., Wallingford CT, 2013.
 
 ******************************************
 Gaussian 09:  EM64L-G09RevD.01 24-Apr-2013
                 7-Sep-2018 
 ******************************************
 %mem=15Gb
 %nproc=8
 Will use up to    8 processors via shared memory.
 ----------------------------------------------------------------------
 #PBEPBE/gen scf=(maxcycle=1000,conver=4) NMR=GIAO Scrf=(solvent=Chloro
 form)
 ----------------------------------------------------------------------
 1/38=1/1;
 2/12=2,17=6,18=5,40=1/2;
 3/5=7,11=2,16=1,25=1,30=1,70=2201,72=7,74=1009/1,2,8,3;
 4//1;
 5/5=2,6=4,7=1000,38=5,53=7/2;
 8/6=1,10=90,11=11/1;
 10/13=100,45=16/2;
 6/7=2,8=2,9=2,10=2,28=1/1;
 99/9=1/99;
 Leave Link    1 at Fri Sep  7 13:09:43 2018, MaxMem=  2013265920 cpu:         0.4
 (Enter /scr/programs/g09/l101.exe)
 -----------
 estrutura 7
 -----------
 Symbolic Z-matrix:
 Charge =  0 Multiplicity = 1
 Pt                   -0.00137   0.43209  -0.04588 
 Cl                    0.00057   2.73767  -0.76142 
 Sn                    0.00466  -2.07966   0.76673 
 Cl                    1.82357  -2.84751   2.15593 
 Cl                    0.00362  -3.80304  -0.91211 
 Cl                   -1.80198  -2.86901   2.16242 
 P                     2.40411   0.44517  -0.10855 
 P                    -2.40448   0.42751  -0.13029 
 C                    -3.21109   1.84199  -1.00179 
 C                    -3.25116   3.09084  -0.35449 
 C                    -3.79935   1.71831  -2.269 
 C                    -3.8717    4.18605  -0.95174 
 H                    -2.80218   3.21726   0.63207 
 C                    -4.41953   2.81241  -2.88053 
 H                    -3.79619   0.76404  -2.79627 
 C                    -4.45246   4.03957  -2.21669 
 H                    -3.90375   5.15064  -0.44299 
 C                    -3.00139  -1.06216  -1.02809 
 C                    -3.9763   -1.93819  -0.52574 
 C                    -2.42693  -1.33211  -2.28489 
 C                    -4.38614  -3.04767  -1.26911 
 H                    -4.41332  -1.78019   0.46003 
 C                    -2.83938  -2.42868  -3.04015 
 H                    -1.63986  -0.68482  -2.68172 
 C                    -3.82189  -3.28092  -2.52542 
 H                    -5.13697  -3.73212  -0.87111 
 C                    -3.21951   0.50272   1.5147 
 C                    -4.62182   0.58822   1.61174 
 C                    -2.45542   0.55297   2.69053 
 C                    -5.24687   0.68819   2.85383 
 H                    -5.24231   0.58708   0.71288 
 C                    -3.06914   0.66642   3.93969 
 H                    -1.36582   0.5113    2.63955 
 C                    -4.46298   0.72576   4.01314 
 H                    -6.3343    0.7462    2.92598 
 C                     3.03351  -1.04892  -0.97857 
 C                     4.07762  -1.85342  -0.49597 
 C                     2.42425  -1.38797  -2.20099 
 C                     4.5193   -2.95831  -1.22634 
 H                     4.54641  -1.64228   0.46498 
 C                     2.86566  -2.48239  -2.9436 
 H                     1.58369  -0.80001  -2.57872 
 C                     3.91634  -3.26089  -2.4502 
 H                     5.32468  -3.58674  -0.84387 
 C                     3.20511   0.55908   1.541 
 C                     4.60264   0.68879   1.64739 
 C                     2.43346   0.58841   2.71204 
 C                     5.21622   0.81323   2.89305 
 H                     5.22801   0.70545   0.75269 
 C                     3.03541   0.72407   3.96466 
 H                     1.34662   0.515     2.65576 
 C                     4.42526   0.82886   4.04711 
 H                     2.42959   0.74849   4.87109 
 C                     3.19281   1.85376  -1.00573 
 C                     3.27303   3.10311  -0.36347 
 C                     3.71321   1.72637  -2.30167 
 C                     3.86977   4.19415  -0.99244 
 H                     2.8756    3.23381   0.64417 
 C                     4.30798   2.81597  -2.94504 
 H                     3.67534   0.77228  -2.82829 
 C                     4.38401   4.04346  -2.28461 
 H                     3.9339    5.15887  -0.48687 
 H                     6.29998   0.90696   2.97152 
 H                     4.71609   2.70805  -3.951 
 H                     2.3884   -2.74142  -3.88954 
 H                    -4.88083   2.70775  -3.86396 
 H                    -2.46954   0.70653   4.85042 
 H                    -2.39212  -2.63287  -4.01383 
 Cl                   -4.33698  -4.66336  -3.45946 
 Cl                   -5.24037   0.86069   5.5702 
 Cl                    5.18711   0.99507   5.60862 
 Cl                    4.4709   -4.63877  -3.36779 
 Cl                    5.13551   5.40825  -3.07734 
 Cl                   -5.23414   5.40964  -2.96988 
 
 NAtoms=     74 NQM=       74 NQMF=       0 NMMI=      0 NMMIF=      0
                NMic=       0 NMicF=      0.
                    Isotopes and Nuclear Properties:
 (Nuclear quadrupole moments (NQMom) in fm**2, nuclear magnetic moments (NMagM)
  in nuclear magnetons)

  Atom         1           2           3           4           5           6           7           8           9          10
 IAtWgt=         195          35         118          35          35          35          31          31          12          12
 AtmWgt= 194.9648000  34.9688527 117.9018000  34.9688527  34.9688527  34.9688527  30.9737634  30.9737634  12.0000000  12.0000000
 NucSpn=           1           3           0           3           3           3           1           1           0           0
 AtZEff=   0.0000000   0.0000000   0.0000000   0.0000000   0.0000000   0.0000000   0.0000000   0.0000000   0.0000000   0.0000000
 NQMom=    0.0000000  -8.1650000   0.0000000  -8.1650000  -8.1650000  -8.1650000   0.0000000   0.0000000   0.0000000   0.0000000
 NMagM=    0.6095000   0.8218740   0.0000000   0.8218740   0.8218740   0.8218740   1.1316000   1.1316000   0.0000000   0.0000000
 AtZNuc=  78.0000000  17.0000000  50.0000000  17.0000000  17.0000000  17.0000000  15.0000000  15.0000000   6.0000000   6.0000000

  Atom        11          12          13          14          15          16          17          18          19          20
 IAtWgt=          12          12           1          12           1          12           1          12          12          12
 AtmWgt=  12.0000000  12.0000000   1.0078250  12.0000000   1.0078250  12.0000000   1.0078250  12.0000000  12.0000000  12.0000000
 NucSpn=           0           0           1           0           1           0           1           0           0           0
 AtZEff=   0.0000000   0.0000000   0.0000000   0.0000000   0.0000000   0.0000000   0.0000000   0.0000000   0.0000000   0.0000000
 NQMom=    0.0000000   0.0000000   0.0000000   0.0000000   0.0000000   0.0000000   0.0000000   0.0000000   0.0000000   0.0000000
 NMagM=    0.0000000   0.0000000   2.7928460   0.0000000   2.7928460   0.0000000   2.7928460   0.0000000   0.0000000   0.0000000
 AtZNuc=   6.0000000   6.0000000   1.0000000   6.0000000   1.0000000   6.0000000   1.0000000   6.0000000   6.0000000   6.0000000

  Atom        21          22          23          24          25          26          27          28          29          30
 IAtWgt=          12           1          12           1          12           1          12          12          12          12
 AtmWgt=  12.0000000   1.0078250  12.0000000   1.0078250  12.0000000   1.0078250  12.0000000  12.0000000  12.0000000  12.0000000
 NucSpn=           0           1           0           1           0           1           0           0           0           0
 AtZEff=   0.0000000   0.0000000   0.0000000   0.0000000   0.0000000   0.0000000   0.0000000   0.0000000   0.0000000   0.0000000
 NQMom=    0.0000000   0.0000000   0.0000000   0.0000000   0.0000000   0.0000000   0.0000000   0.0000000   0.0000000   0.0000000
 NMagM=    0.0000000   2.7928460   0.0000000   2.7928460   0.0000000   2.7928460   0.0000000   0.0000000   0.0000000   0.0000000
 AtZNuc=   6.0000000   1.0000000   6.0000000   1.0000000   6.0000000   1.0000000   6.0000000   6.0000000   6.0000000   6.0000000

  Atom        31          32          33          34          35          36          37          38          39          40
 IAtWgt=           1          12           1          12           1          12          12          12          12           1
 AtmWgt=   1.0078250  12.0000000   1.0078250  12.0000000   1.0078250  12.0000000  12.0000000  12.0000000  12.0000000   1.0078250
 NucSpn=           1           0           1           0           1           0           0           0           0           1
 AtZEff=   0.0000000   0.0000000   0.0000000   0.0000000   0.0000000   0.0000000   0.0000000   0.0000000   0.0000000   0.0000000
 NQMom=    0.0000000   0.0000000   0.0000000   0.0000000   0.0000000   0.0000000   0.0000000   0.0000000   0.0000000   0.0000000
 NMagM=    2.7928460   0.0000000   2.7928460   0.0000000   2.7928460   0.0000000   0.0000000   0.0000000   0.0000000   2.7928460
 AtZNuc=   1.0000000   6.0000000   1.0000000   6.0000000   1.0000000   6.0000000   6.0000000   6.0000000   6.0000000   1.0000000

  Atom        41          42          43          44          45          46          47          48          49          50
 IAtWgt=          12           1          12           1          12          12          12          12           1          12
 AtmWgt=  12.0000000   1.0078250  12.0000000   1.0078250  12.0000000  12.0000000  12.0000000  12.0000000   1.0078250  12.0000000
 NucSpn=           0           1           0           1           0           0           0           0           1           0
 AtZEff=   0.0000000   0.0000000   0.0000000   0.0000000   0.0000000   0.0000000   0.0000000   0.0000000   0.0000000   0.0000000
 NQMom=    0.0000000   0.0000000   0.0000000   0.0000000   0.0000000   0.0000000   0.0000000   0.0000000   0.0000000   0.0000000
 NMagM=    0.0000000   2.7928460   0.0000000   2.7928460   0.0000000   0.0000000   0.0000000   0.0000000   2.7928460   0.0000000
 AtZNuc=   6.0000000   1.0000000   6.0000000   1.0000000   6.0000000   6.0000000   6.0000000   6.0000000   1.0000000   6.0000000

  Atom        51          52          53          54          55          56          57          58          59          60
 IAtWgt=           1          12           1          12          12          12          12           1          12           1
 AtmWgt=   1.0078250  12.0000000   1.0078250  12.0000000  12.0000000  12.0000000  12.0000000   1.0078250  12.0000000   1.0078250
 NucSpn=           1           0           1           0           0           0           0           1           0           1
 AtZEff=   0.0000000   0.0000000   0.0000000   0.0000000   0.0000000   0.0000000   0.0000000   0.0000000   0.0000000   0.0000000
 NQMom=    0.0000000   0.0000000   0.0000000   0.0000000   0.0000000   0.0000000   0.0000000   0.0000000   0.0000000   0.0000000
 NMagM=    2.7928460   0.0000000   2.7928460   0.0000000   0.0000000   0.0000000   0.0000000   2.7928460   0.0000000   2.7928460
 AtZNuc=   1.0000000   6.0000000   1.0000000   6.0000000   6.0000000   6.0000000   6.0000000   1.0000000   6.0000000   1.0000000

  Atom        61          62          63          64          65          66          67          68          69          70
 IAtWgt=          12           1           1           1           1           1           1           1          35          35
 AtmWgt=  12.0000000   1.0078250   1.0078250   1.0078250   1.0078250   1.0078250   1.0078250   1.0078250  34.9688527  34.9688527
 NucSpn=           0           1           1           1           1           1           1           1           3           3
 AtZEff=   0.0000000   0.0000000   0.0000000   0.0000000   0.0000000   0.0000000   0.0000000   0.0000000   0.0000000   0.0000000
 NQMom=    0.0000000   0.0000000   0.0000000   0.0000000   0.0000000   0.0000000   0.0000000   0.0000000  -8.1650000  -8.1650000
 NMagM=    0.0000000   2.7928460   2.7928460   2.7928460   2.7928460   2.7928460   2.7928460   2.7928460   0.8218740   0.8218740
 AtZNuc=   6.0000000   1.0000000   1.0000000   1.0000000   1.0000000   1.0000000   1.0000000   1.0000000  17.0000000  17.0000000

  Atom        71          72          73          74
 IAtWgt=          35          35          35          35
 AtmWgt=  34.9688527  34.9688527  34.9688527  34.9688527
 NucSpn=           3           3           3           3
 AtZEff=   0.0000000   0.0000000   0.0000000   0.0000000
 NQMom=   -8.1650000  -8.1650000  -8.1650000  -8.1650000
 NMagM=    0.8218740   0.8218740   0.8218740   0.8218740
 AtZNuc=  17.0000000  17.0000000  17.0000000  17.0000000
 Leave Link  101 at Fri Sep  7 13:09:43 2018, MaxMem=  2013265920 cpu:         1.4
 (Enter /scr/programs/g09/l202.exe)
 Stoichiometry    C36H24Cl10P2PtSn
 Framework group  C1[X(C36H24Cl10P2PtSn)]
 Deg. of freedom   216
 Full point group                 C1      NOp   1
 Largest Abelian subgroup         C1      NOp   1
 Largest concise Abelian subgroup C1      NOp   1
                         Standard orientation:                         
 ---------------------------------------------------------------------
 Center     Atomic      Atomic             Coordinates (Angstroms)
 Number     Number       Type             X           Y           Z
 ---------------------------------------------------------------------
      1         78           0       -0.001367    0.432093   -0.045876
      2         17           0        0.000568    2.737674   -0.761423
      3         50           0        0.004664   -2.079663    0.766729
      4         17           0        1.823568   -2.847506    2.155928
      5         17           0        0.003619   -3.803038   -0.912106
      6         17           0       -1.801984   -2.869005    2.162421
      7         15           0        2.404114    0.445174   -0.108552
      8         15           0       -2.404476    0.427511   -0.130288
      9          6           0       -3.211090    1.841985   -1.001792
     10          6           0       -3.251161    3.090840   -0.354486
     11          6           0       -3.799351    1.718306   -2.269000
     12          6           0       -3.871700    4.186051   -0.951739
     13          1           0       -2.802180    3.217255    0.632072
     14          6           0       -4.419533    2.812407   -2.880528
     15          1           0       -3.796191    0.764041   -2.796274
     16          6           0       -4.452460    4.039574   -2.216689
     17          1           0       -3.903753    5.150642   -0.442988
     18          6           0       -3.001392   -1.062158   -1.028091
     19          6           0       -3.976302   -1.938186   -0.525739
     20          6           0       -2.426930   -1.332109   -2.284885
     21          6           0       -4.386139   -3.047674   -1.269105
     22          1           0       -4.413320   -1.780189    0.460034
     23          6           0       -2.839381   -2.428682   -3.040149
     24          1           0       -1.639855   -0.684823   -2.681719
     25          6           0       -3.821891   -3.280919   -2.525415
     26          1           0       -5.136972   -3.732116   -0.871110
     27          6           0       -3.219510    0.502724    1.514703
     28          6           0       -4.621820    0.588224    1.611740
     29          6           0       -2.455416    0.552965    2.690525
     30          6           0       -5.246873    0.688193    2.853829
     31          1           0       -5.242308    0.587076    0.712878
     32          6           0       -3.069138    0.666416    3.939691
     33          1           0       -1.365822    0.511299    2.639545
     34          6           0       -4.462979    0.725759    4.013141
     35          1           0       -6.334302    0.746203    2.925983
     36          6           0        3.033507   -1.048922   -0.978568
     37          6           0        4.077621   -1.853416   -0.495972
     38          6           0        2.424254   -1.387968   -2.200991
     39          6           0        4.519297   -2.958314   -1.226344
     40          1           0        4.546413   -1.642277    0.464979
     41          6           0        2.865655   -2.482391   -2.943602
     42          1           0        1.583685   -0.800009   -2.578715
     43          6           0        3.916337   -3.260887   -2.450197
     44          1           0        5.324677   -3.586741   -0.843869
     45          6           0        3.205113    0.559075    1.540999
     46          6           0        4.602640    0.688794    1.647388
     47          6           0        2.433455    0.588414    2.712042
     48          6           0        5.216224    0.813228    2.893046
     49          1           0        5.228006    0.705451    0.752692
     50          6           0        3.035408    0.724068    3.964656
     51          1           0        1.346619    0.515002    2.655761
     52          6           0        4.425257    0.828860    4.047112
     53          1           0        2.429595    0.748490    4.871090
     54          6           0        3.192812    1.853756   -1.005731
     55          6           0        3.273029    3.103110   -0.363467
     56          6           0        3.713213    1.726370   -2.301666
     57          6           0        3.869774    4.194150   -0.992439
     58          1           0        2.875599    3.233805    0.644171
     59          6           0        4.307982    2.815966   -2.945037
     60          1           0        3.675340    0.772280   -2.828287
     61          6           0        4.384007    4.043461   -2.284606
     62          1           0        3.933895    5.158873   -0.486870
     63          1           0        6.299979    0.906960    2.971516
     64          1           0        4.716086    2.708054   -3.951001
     65          1           0        2.388399   -2.741419   -3.889535
     66          1           0       -4.880827    2.707752   -3.863959
     67          1           0       -2.469537    0.706529    4.850423
     68          1           0       -2.392120   -2.632874   -4.013834
     69         17           0       -4.336977   -4.663359   -3.459457
     70         17           0       -5.240374    0.860686    5.570195
     71         17           0        5.187111    0.995069    5.608615
     72         17           0        4.470903   -4.638771   -3.367790
     73         17           0        5.135510    5.408254   -3.077342
     74         17           0       -5.234143    5.409636   -2.969880
 ---------------------------------------------------------------------
 Rotational constants (GHZ):      0.0349576      0.0268214      0.0250685
 Leave Link  202 at Fri Sep  7 13:09:43 2018, MaxMem=  2013265920 cpu:         0.0
 (Enter /scr/programs/g09/l301.exe)
 General basis read from cards:  (5D, 7F)
 Centers:      13     15     17     22     24     26     31     33     35     40
 Centers:      42     44     49     51     53     58     60     62     63     64
 Centers:      65     66     67     68
 S 5 1.00
     Exponent=  2.8295215633D+02 Coefficients=  4.3000000000D-04
     Exponent=  8.7062201949D+01 Coefficients=  5.1000000000D-04
     Exponent=  2.6788369830D+01 Coefficients=  6.1600000000D-03
     Exponent=  8.2425753324D+00 Coefficients=  1.3030000000D-02
     Exponent=  2.5361770254D+00 Coefficients=  9.9490000000D-02
 S 1 1.00
     Exponent=  7.8036216165D-01 Coefficients=  1.0000000000D+00
 S 1 1.00
     Exponent=  2.4011143435D-01 Coefficients=  1.0000000000D+00
 P 1 1.00
     Exponent=  8.8150000000D-01 Coefficients=  1.0000000000D+00
 P 1 1.00
     Exponent=  1.7989200000D-01 Coefficients=  1.0000000000D+00
 ****
 Centers:       9     10     11     12     14     16     18     19     20     21
 Centers:      23     25     27     28     29     30     32     34     36     37
 Centers:      38     39     41     43     45     46     47     48     50     52
 Centers:      54     55     56     57     59     61
 S 6 1.00
     Exponent=  8.8461235339D+03 Coefficients=  5.3000000000D-04
     Exponent=  2.9487078446D+03 Coefficients=  7.7000000000D-04
     Exponent=  9.8290261488D+02 Coefficients=  4.0500000000D-03
     Exponent=  3.2763420496D+02 Coefficients=  1.4030000000D-02
     Exponent=  1.0921140165D+02 Coefficients=  5.3450000000D-02
     Exponent=  3.6403800551D+01 Coefficients=  1.7027000000D-01
 S 1 1.00
     Exponent=  1.2134600184D+01 Coefficients=  1.0000000000D+00
 S 1 1.00
     Exponent=  4.0448667279D+00 Coefficients=  1.0000000000D+00
 S 1 1.00
     Exponent=  1.3482889093D+00 Coefficients=  1.0000000000D+00
 S 1 1.00
     Exponent=  4.4942963643D-01 Coefficients=  1.0000000000D+00
 S 1 1.00
     Exponent=  1.4980987881D-01 Coefficients=  1.0000000000D+00
 P 4 1.00
     Exponent=  3.7294093393D+01 Coefficients=  3.9600000000D-03
     Exponent=  1.1475105659D+01 Coefficients=  1.8890000000D-02
     Exponent=  3.5308017414D+00 Coefficients=  9.4610000000D-02
     Exponent=  1.0864005358D+00 Coefficients=  3.1889000000D-01
 P 1 1.00
     Exponent=  3.3427708794D-01 Coefficients=  1.0000000000D+00
 P 1 1.00
     Exponent=  1.0285448860D-01 Coefficients=  1.0000000000D+00
 D 1 1.00
     Exponent=  4.7750000000D-01 Coefficients=  1.0000000000D+00
 D 1 1.00
     Exponent=  1.1998000000D-01 Coefficients=  1.0000000000D+00
 ****
 Centers:       7      8
 S 7 1.00
     Exponent=  5.9538004301D+04 Coefficients=  9.5000000000D-04
     Exponent=  2.1650183382D+04 Coefficients=  6.1000000000D-04
     Exponent=  7.8727939572D+03 Coefficients=  3.7500000000D-03
     Exponent=  2.8628341663D+03 Coefficients=  9.6300000000D-03
     Exponent=  1.0410306059D+03 Coefficients=  3.2430000000D-02
     Exponent=  3.7855658397D+02 Coefficients=  9.9500000000D-02
     Exponent=  1.3765693962D+02 Coefficients=  2.6570000000D-01
 S 1 1.00
     Exponent=  5.0057068954D+01 Coefficients=  1.0000000000D+00
 S 1 1.00
     Exponent=  1.8202570529D+01 Coefficients=  1.0000000000D+00
 S 1 1.00
     Exponent=  6.6191165560D+00 Coefficients=  1.0000000000D+00
 S 1 1.00
     Exponent=  2.4069514749D+00 Coefficients=  1.0000000000D+00
 S 1 1.00
     Exponent=  8.7525508178D-01 Coefficients=  1.0000000000D+00
 S 1 1.00
     Exponent=  3.1827457519D-01 Coefficients=  1.0000000000D+00
 S 1 1.00
     Exponent=  1.1573620916D-01 Coefficients=  1.0000000000D+00
 S 1 1.00
     Exponent=  4.2085894240D-02 Coefficients=  1.0000000000D+00
 P 5 1.00
     Exponent=  4.8799672315D+02 Coefficients=  2.1600000000D-03
     Exponent=  1.6266557438D+02 Coefficients=  9.7900000000D-03
     Exponent=  5.4221858128D+01 Coefficients=  5.4850000000D-02
     Exponent=  1.8073952709D+01 Coefficients=  2.1770000000D-01
     Exponent=  6.0246509031D+00 Coefficients=  4.8978000000D-01
 P 1 1.00
     Exponent=  2.0082169677D+00 Coefficients=  1.0000000000D+00
 P 1 1.00
     Exponent=  6.6940565590D-01 Coefficients=  1.0000000000D+00
 P 1 1.00
     Exponent=  2.2313521863D-01 Coefficients=  1.0000000000D+00
 P 1 1.00
     Exponent=  7.4378406211D-02 Coefficients=  1.0000000000D+00
 P 1 1.00
     Exponent=  2.4792802070D-02 Coefficients=  1.0000000000D+00
 D 1 1.00
     Exponent=  3.5395000000D-01 Coefficients=  1.0000000000D+00
 D 1 1.00
     Exponent=  8.9098000000D-02 Coefficients=  1.0000000000D+00
 ****
 Centers:       2      4      5      6     69     70     71     72     73     74
 S 7 1.00
     Exponent=  7.7142817164D+04 Coefficients=  1.0600000000D-03
     Exponent=  2.8051933514D+04 Coefficients=  6.4000000000D-04
     Exponent=  1.0200703096D+04 Coefficients=  3.9600000000D-03
     Exponent=  3.7093465804D+03 Coefficients=  9.8300000000D-03
     Exponent=  1.3488533020D+03 Coefficients=  3.2690000000D-02
     Exponent=  4.9049210981D+02 Coefficients=  9.9520000000D-02
     Exponent=  1.7836076720D+02 Coefficients=  2.6555000000D-01
 S 1 1.00
     Exponent=  6.4858460801D+01 Coefficients=  1.0000000000D+00
 S 1 1.00
     Exponent=  2.3584894837D+01 Coefficients=  1.0000000000D+00
 S 1 1.00
     Exponent=  8.5763253951D+00 Coefficients=  1.0000000000D+00
 S 1 1.00
     Exponent=  3.1186637801D+00 Coefficients=  1.0000000000D+00
 S 1 1.00
     Exponent=  1.1340595564D+00 Coefficients=  1.0000000000D+00
 S 1 1.00
     Exponent=  4.1238529323D-01 Coefficients=  1.0000000000D+00
 S 1 1.00
     Exponent=  1.4995828845D-01 Coefficients=  1.0000000000D+00
 S 1 1.00
     Exponent=  5.4530286708D-02 Coefficients=  1.0000000000D+00
 P 5 1.00
     Exponent=  6.9498536057D+02 Coefficients=  2.0000000000D-03
     Exponent=  2.3166178686D+02 Coefficients=  8.9500000000D-03
     Exponent=  7.7220595619D+01 Coefficients=  5.1130000000D-02
     Exponent=  2.5740198540D+01 Coefficients=  2.1011000000D-01
     Exponent=  8.5800661799D+00 Coefficients=  4.9738000000D-01
 P 1 1.00
     Exponent=  2.8600220600D+00 Coefficients=  1.0000000000D+00
 P 1 1.00
     Exponent=  9.5334068665D-01 Coefficients=  1.0000000000D+00
 P 1 1.00
     Exponent=  3.1778022888D-01 Coefficients=  1.0000000000D+00
 P 1 1.00
     Exponent=  1.0592674296D-01 Coefficients=  1.0000000000D+00
 P 1 1.00
     Exponent=  3.5308914320D-02 Coefficients=  1.0000000000D+00
 D 1 1.00
     Exponent=  5.5696000000D-01 Coefficients=  1.0000000000D+00
 D 1 1.00
     Exponent=  1.5619100000D-01 Coefficients=  1.0000000000D+00
 ****
 Centers:       3
 S 8 1.00
     Exponent=  7.5448214551D+05 Coefficients=  4.4300000000D-03
     Exponent=  3.3532539800D+05 Coefficients=  1.9800000000D-03
     Exponent=  1.4903351022D+05 Coefficients=  9.0500000000D-03
     Exponent=  6.6237115655D+04 Coefficients=  4.8700000000D-03
     Exponent=  2.9438718069D+04 Coefficients=  2.0770000000D-02
     Exponent=  1.3083874697D+04 Coefficients=  3.2900000000D-02
     Exponent=  5.8150554210D+03 Coefficients=  7.7010000000D-02
     Exponent=  2.5844690760D+03 Coefficients=  1.5160000000D-01
 S 1 1.00
     Exponent=  1.1486529227D+03 Coefficients=  1.0000000000D+00
 S 1 1.00
     Exponent=  5.1051241008D+02 Coefficients=  1.0000000000D+00
 S 1 1.00
     Exponent=  2.2689440448D+02 Coefficients=  1.0000000000D+00
 S 1 1.00
     Exponent=  1.0084195755D+02 Coefficients=  1.0000000000D+00
 S 1 1.00
     Exponent=  4.4818647798D+01 Coefficients=  1.0000000000D+00
 S 1 1.00
     Exponent=  1.9919399021D+01 Coefficients=  1.0000000000D+00
 S 1 1.00
     Exponent=  8.8530662317D+00 Coefficients=  1.0000000000D+00
 S 1 1.00
     Exponent=  3.9346961030D+00 Coefficients=  1.0000000000D+00
 S 1 1.00
     Exponent=  1.7487538235D+00 Coefficients=  1.0000000000D+00
 S 1 1.00
     Exponent=  7.7722392158D-01 Coefficients=  1.0000000000D+00
 S 1 1.00
     Exponent=  3.4543285403D-01 Coefficients=  1.0000000000D+00
 S 1 1.00
     Exponent=  1.5352571290D-01 Coefficients=  1.0000000000D+00
 S 1 1.00
     Exponent=  6.8233650180D-02 Coefficients=  1.0000000000D+00
 S 1 1.00
     Exponent=  1.3478251887D-02 Coefficients=  1.0000000000D+00
 P 5 1.00
     Exponent=  1.0090658304D+04 Coefficients=  2.7500000000D-03
     Exponent=  4.0362633217D+03 Coefficients=  4.1800000000D-03
     Exponent=  1.6145053287D+03 Coefficients=  2.0890000000D-02
     Exponent=  6.4580213147D+02 Coefficients=  7.1370000000D-02
     Exponent=  2.5832085259D+02 Coefficients=  2.2613000000D-01
 P 1 1.00
     Exponent=  1.0332834104D+02 Coefficients=  1.0000000000D+00
 P 1 1.00
     Exponent=  4.1331336414D+01 Coefficients=  1.0000000000D+00
 P 1 1.00
     Exponent=  1.6532534566D+01 Coefficients=  1.0000000000D+00
 P 1 1.00
     Exponent=  6.6130138263D+00 Coefficients=  1.0000000000D+00
 P 1 1.00
     Exponent=  2.6452055305D+00 Coefficients=  1.0000000000D+00
 P 1 1.00
     Exponent=  1.0580822122D+00 Coefficients=  1.0000000000D+00
 P 1 1.00
     Exponent=  4.2323288488D-01 Coefficients=  1.0000000000D+00
 P 1 1.00
     Exponent=  1.6929315395D-01 Coefficients=  1.0000000000D+00
 P 1 1.00
     Exponent=  6.7717261581D-02 Coefficients=  1.0000000000D+00
 P 1 1.00
     Exponent=  2.7086904632D-02 Coefficients=  1.0000000000D+00
 P 1 1.00
     Exponent=  1.0834761853D-02 Coefficients=  1.0000000000D+00
 D 4 1.00
     Exponent=  5.5430250651D+02 Coefficients=  4.3700000000D-03
     Exponent=  2.0156454782D+02 Coefficients=  2.5110000000D-02
     Exponent=  7.3296199207D+01 Coefficients=  1.3316000000D-01
     Exponent=  2.6653163348D+01 Coefficients=  3.8900000000D-01
 D 1 1.00
     Exponent=  9.6920593993D+00 Coefficients=  1.0000000000D+00
 D 1 1.00
     Exponent=  3.5243852361D+00 Coefficients=  1.0000000000D+00
 D 1 1.00
     Exponent=  1.2815946313D+00 Coefficients=  1.0000000000D+00
 D 1 1.00
     Exponent=  4.6603441139D-01 Coefficients=  1.0000000000D+00
 D 1 1.00
     Exponent=  1.6946705869D-01 Coefficients=  1.0000000000D+00
 F 1 1.00
     Exponent=  1.3140000000D+00 Coefficients=  1.0000000000D+00
 F 1 1.00
     Exponent=  1.9993000000D-01 Coefficients=  1.0000000000D+00
 ****
 Centers:       1
 S 9 1.00
     Exponent=  2.1644816090D+06 Coefficients=  1.2320000000D-02
     Exponent=  1.0822408045D+06 Coefficients=  1.2970000000D-02
     Exponent=  5.4112040224D+05 Coefficients=  2.6370000000D-02
     Exponent=  2.7056020112D+05 Coefficients=  9.0400000000D-03
     Exponent=  1.3528010056D+05 Coefficients=  3.4980000000D-02
     Exponent=  6.7640050280D+04 Coefficients=  1.2220000000D-02
     Exponent=  3.3820025140D+04 Coefficients=  6.0520000000D-02
     Exponent=  1.6910012570D+04 Coefficients=  6.4930000000D-02
     Exponent=  8.4550062850D+03 Coefficients=  1.3819000000D-01
 S 1 1.00
     Exponent=  4.2275031425D+03 Coefficients=  1.0000000000D+00
 S 1 1.00
     Exponent=  2.1137515713D+03 Coefficients=  1.0000000000D+00
 S 1 1.00
     Exponent=  1.0568757856D+03 Coefficients=  1.0000000000D+00
 S 1 1.00
     Exponent=  5.2843789281D+02 Coefficients=  1.0000000000D+00
 S 1 1.00
     Exponent=  2.6421894641D+02 Coefficients=  1.0000000000D+00
 S 1 1.00
     Exponent=  1.3210947320D+02 Coefficients=  1.0000000000D+00
 S 1 1.00
     Exponent=  6.6054736602D+01 Coefficients=  1.0000000000D+00
 S 1 1.00
     Exponent=  3.3027368301D+01 Coefficients=  1.0000000000D+00
 S 1 1.00
     Exponent=  1.6513684150D+01 Coefficients=  1.0000000000D+00
 S 1 1.00
     Exponent=  8.2568420752D+00 Coefficients=  1.0000000000D+00
 S 1 1.00
     Exponent=  4.1284210376D+00 Coefficients=  1.0000000000D+00
 S 1 1.00
     Exponent=  2.0642105188D+00 Coefficients=  1.0000000000D+00
 S 1 1.00
     Exponent=  1.0321052594D+00 Coefficients=  1.0000000000D+00
 S 1 1.00
     Exponent=  5.1605262970D-01 Coefficients=  1.0000000000D+00
 S 1 1.00
     Exponent=  2.5802631485D-01 Coefficients=  1.0000000000D+00
 S 1 1.00
     Exponent=  1.2901315743D-01 Coefficients=  1.0000000000D+00
 S 1 1.00
     Exponent=  6.4506578713D-02 Coefficients=  1.0000000000D+00
 P 7 1.00
     Exponent=  3.2357915258D+04 Coefficients=  5.0200000000D-03
     Exponent=  1.4381295670D+04 Coefficients=  2.0200000000D-03
     Exponent=  6.3916869645D+03 Coefficients=  1.8070000000D-02
     Exponent=  2.8407497620D+03 Coefficients=  3.6620000000D-02
     Exponent=  1.2625554498D+03 Coefficients=  1.1172000000D-01
     Exponent=  5.6113575545D+02 Coefficients=  2.5586000000D-01
     Exponent=  2.4939366909D+02 Coefficients=  4.2608000000D-01
 P 1 1.00
     Exponent=  1.1084163071D+02 Coefficients=  1.0000000000D+00
 P 1 1.00
     Exponent=  4.9262946981D+01 Coefficients=  1.0000000000D+00
 P 1 1.00
     Exponent=  2.1894643103D+01 Coefficients=  1.0000000000D+00
 P 1 1.00
     Exponent=  9.7309524900D+00 Coefficients=  1.0000000000D+00
 P 1 1.00
     Exponent=  4.3248677733D+00 Coefficients=  1.0000000000D+00
 P 1 1.00
     Exponent=  1.9221634548D+00 Coefficients=  1.0000000000D+00
 P 1 1.00
     Exponent=  8.5429486881D-01 Coefficients=  1.0000000000D+00
 P 1 1.00
     Exponent=  3.7968660836D-01 Coefficients=  1.0000000000D+00
 P 1 1.00
     Exponent=  1.6874960372D-01 Coefficients=  1.0000000000D+00
 P 1 1.00
     Exponent=  7.4999823874D-02 Coefficients=  1.0000000000D+00
 P 1 1.00
     Exponent=  3.3333255055D-02 Coefficients=  1.0000000000D+00
 D 5 1.00
     Exponent=  1.9119003508D+03 Coefficients=  4.3300000000D-03
     Exponent=  7.6476014031D+02 Coefficients=  1.7780000000D-02
     Exponent=  3.0590405613D+02 Coefficients=  8.9710000000D-02
     Exponent=  1.2236162245D+02 Coefficients=  3.1123000000D-01
     Exponent=  4.8944648980D+01 Coefficients=  5.3206000000D-01
 D 1 1.00
     Exponent=  1.9577859592D+01 Coefficients=  1.0000000000D+00
 D 1 1.00
     Exponent=  7.8311438368D+00 Coefficients=  1.0000000000D+00
 D 1 1.00
     Exponent=  3.1324575347D+00 Coefficients=  1.0000000000D+00
 D 1 1.00
     Exponent=  1.2529830139D+00 Coefficients=  1.0000000000D+00
 D 1 1.00
     Exponent=  5.0119320556D-01 Coefficients=  1.0000000000D+00
 D 1 1.00
     Exponent=  2.0047728222D-01 Coefficients=  1.0000000000D+00
 D 1 1.00
     Exponent=  8.0190912889D-02 Coefficients=  1.0000000000D+00
 D 1 1.00
     Exponent=  3.2076365156D-02 Coefficients=  1.0000000000D+00
 F 4 1.00
     Exponent=  8.2289680979D+01 Coefficients=  6.1870000000D-02
     Exponent=  2.9923520356D+01 Coefficients=  2.4823000000D-01
     Exponent=  1.0881280130D+01 Coefficients=  4.9956000000D-01
     Exponent=  3.9568291380D+00 Coefficients=  4.0380000000D-01
 F 1 1.00
     Exponent=  1.4388469593D+00 Coefficients=  1.0000000000D+00
 F 1 1.00
     Exponent=  5.2321707610D-01 Coefficients=  1.0000000000D+00
 G 1 1.00
     Exponent=  2.6700000000D+00 Coefficients=  1.0000000000D+00
 G 1 1.00
     Exponent=  9.0960000000D-01 Coefficients=  1.0000000000D+00
 ****
 Ernie: Thresh=  0.10000D-02 Tol=  0.10000D-05 Strict=F.
 There are  1931 symmetry adapted cartesian basis functions of A   symmetry.
 There are  1793 symmetry adapted basis functions of A   symmetry.
  1793 basis functions,  2864 primitive gaussians,  1931 cartesian basis functions
   284 alpha electrons      284 beta electrons
       nuclear repulsion energy     15795.9914653848 Hartrees.
 IExCor= 1009 DFT=T Ex=PBE Corr=PBE ExCW=0 ScaHFX=  0.000000
 ScaDFX=  1.000000  1.000000  1.000000  1.000000 ScalE2=  1.000000  1.000000
 IRadAn=      0 IRanWt=     -1 IRanGd=            0 ICorTp=0 IEmpDi=  4
 NAtoms=   74 NActive=   74 NUniq=   74 SFac= 1.00D+00 NAtFMM=   60 NAOKFM=T Big=T
 Integral buffers will be    131072 words long.
 Raffenetti 2 integral format.
 Two-electron integral symmetry is turned on.
 ------------------------------------------------------------------------------
 Polarizable Continuum Model (PCM)
 =================================
 Model                : PCM (using non-symmetric T matrix).
 Atomic radii         : UFF (Universal Force Field).
 Polarization charges : Total charges.
 Charge compensation  : None.
 Solution method      : On-the-fly selection.
 Cavity type          : Scaled VdW (van der Waals Surface) (Alpha=1.100).
 Cavity algorithm     : GePol (No added spheres)
                        Default sphere list used, NSphG=   74.
                        Lebedev-Laikov grids with approx.  5.0 points / Ang**2.
                        Smoothing algorithm: Karplus/York (Gamma=1.0000).
                        Polarization charges: spherical gaussians, with
                                              point-specific exponents (IZeta= 3).
                        Self-potential: point-specific (ISelfS= 7).
                        Self-field    : sphere-specific E.n sum rule (ISelfD= 2).
 Solvent              : Chloroform, Eps=   4.711300 Eps(inf)=   2.090627
 ------------------------------------------------------------------------------
 GePol: Number of generator spheres                  =      74
 GePol: Total number of spheres                      =      74
 GePol: Number of exposed spheres                    =      74 (100.00%)
 GePol: Number of points                             =    5998
 GePol: Average weight of points                     =       0.14
 GePol: Minimum weight of points                     =   0.40D-11
 GePol: Maximum weight of points                     =    0.21838
 GePol: Number of points with low weight             =     364
 GePol: Fraction of low-weight points (<1% of avg)   =       6.07%
 GePol: Cavity surface area                          =    860.729 Ang**2
 GePol: Cavity volume                                =   1047.150 Ang**3
 Leave Link  301 at Fri Sep  7 13:09:44 2018, MaxMem=  2013265920 cpu:         1.6
 (Enter /scr/programs/g09/l302.exe)
 NPDir=0 NMtPBC=     1 NCelOv=     1 NCel=       1 NClECP=     1 NCelD=      1
         NCelK=      1 NCelE2=     1 NClLst=     1 CellRange=     0.0.
 One-electron integrals computed using PRISM.
 NBasis=  1793 RedAO= T EigKep=  1.52D-06  NBF=  1793
 NBsUse=  1793 1.00D-06 EigRej= -1.00D+00 NBFU=  1793
 Precomputing XC quadrature grid using
 IXCGrd= 4 IRadAn=           0 IRanWt=          -1 IRanGd=           0 AccXCQ= 0.00D+00.
 Defaulting to unpruned grid for atomic number  78.
 Generated NRdTot=       0 NPtTot=           0 NUsed=           0 NTot=          32
 NSgBfM=  1616  1622  1623  1624  1624 MxSgAt=    74 MxSgA2=    74.
 Leave Link  302 at Fri Sep  7 13:10:02 2018, MaxMem=  2013265920 cpu:       149.2
 (Enter /scr/programs/g09/l308.exe)
 Leave Link  308 at Fri Sep  7 13:10:04 2018, MaxMem=  2013265920 cpu:        12.0
 (Enter /scr/programs/g09/l303.exe)
 DipDrv:  MaxL=1.
 Leave Link  303 at Fri Sep  7 13:10:05 2018, MaxMem=  2013265920 cpu:         6.9
 (Enter /scr/programs/g09/l401.exe)
 ExpMin= 1.08D-02 ExpMax= 2.16D+06 ExpMxC= 2.16D+06 IAcc=4 IRadAn=    199590 AccDes= 0.00D+00
 Harris functional with IExCor= 1009 and IRadAn=  199590 diagonalized for initial guess.
 HarFok:  IExCor= 1009 AccDes= 0.00D+00 IRadAn=    199590 IDoV= 1 UseB2=F ITyADJ=14
 ICtDFT=  3500011 ScaDFX=  1.000000  1.000000  1.000000  1.000000
 FoFCou: FMM=F IPFlag=           0 FMFlag=      100000 FMFlg1=        2001
         NFxFlg=           0 DoJE=T BraDBF=F KetDBF=T FulRan=T
         wScrn=  0.000000 ICntrl=     500 IOpCl=  0 I1Cent=   200000004 NGrid=           0
         NMat0=    1 NMatS0=      1 NMatT0=    0 NMatD0=    1 NMtDS0=    0 NMtDT0=    0
 Petite list used in FoFCou.
 Harris En= -29770.7335821364    
 JPrj=0 DoOrth=F DoCkMO=F.
 Leave Link  401 at Fri Sep  7 13:14:27 2018, MaxMem=  2013265920 cpu:      2087.9
 (Enter /scr/programs/g09/l502.exe)
 Closed shell SCF:
 Using DIIS extrapolation, IDIIS=  1040.
 Integral symmetry usage will be decided dynamically.
 IVT=    12222583 IEndB=    12222583 NGot=  2013265920 MDV=  2005776030
 LenX=  2005776030 LenY=  2002045338
 Requested convergence on RMS density matrix=1.00D-04 within1000 cycles.
 Requested convergence on MAX density matrix=1.00D-02.
 Requested convergence on             energy=1.00D-02.
 No special actions if energy rises.
 Fock matrices will be formed incrementally for  20 cycles.

 Cycle   1  Pass 1  IDiag  1:
 FoFJK:  IHMeth= 1 ICntrl=     500 DoSepK=F KAlg= 0 I1Cent=   0 FoldK=F
 IRaf= 610000000 NMat=   1 IRICut=       1 DoRegI=T DoRafI=F ISym2E= 0.
 FoFCou: FMM=T IPFlag=           0 FMFlag=      100000 FMFlg1=        2001
         NFxFlg=           0 DoJE=T BraDBF=F KetDBF=F FulRan=T
         wScrn=  0.000000 ICntrl=     500 IOpCl=  0 I1Cent=           0 NGrid=           0
         NMat0=    1 NMatS0=      1 NMatT0=    0 NMatD0=    1 NMtDS0=    0 NMtDT0=    0
 Symmetry not used in FoFCou.
 FMM levels:  10  Number of levels for PrismC:   9
 Defaulting to unpruned grid for atomic number  78.
 Defaulting to unpruned grid for atomic number  78.
 Defaulting to unpruned grid for atomic number  78.
 Defaulting to unpruned grid for atomic number  78.
 Defaulting to unpruned grid for atomic number  78.
 Defaulting to unpruned grid for atomic number  78.
 Defaulting to unpruned grid for atomic number  78.
 Defaulting to unpruned grid for atomic number  78.
 Inv3:  Mode=1 IEnd=   107928012.
 Iteration    1 A*A^-1 deviation from unit magnitude is 1.22D-14 for   5947.
 Iteration    1 A*A^-1 deviation from orthogonality  is 8.02D-15 for   3520   3418.
 Iteration    1 A^-1*A deviation from unit magnitude is 1.23D-14 for   5947.
 Iteration    1 A^-1*A deviation from orthogonality  is 6.43D-11 for   2686   2654.
 E= -29751.2676236331    
 DIIS: error= 2.05D-01 at cycle   1 NSaved=   1.
 NSaved= 1 IEnMin= 1 EnMin= -29751.2676236331     IErMin= 1 ErrMin= 2.05D-01
 ErrMax= 2.05D-01  0.00D+00 EMaxC= 1.00D-01 BMatC= 3.35D+02 BMatP= 3.35D+02
 IDIUse=3 WtCom= 0.00D+00 WtEn= 1.00D+00
 Coeff-Com:  0.100D+01
 Coeff-En:   0.100D+01
 Coeff:      0.100D+01
 Gap=     0.835 Goal=   None    Shift=    0.000
 GapD=    0.835 DampG=2.000 DampE=0.125 DampFc=0.2500 IDamp=-1.
 Damping current iteration by 2.50D-01
 RMSDP=1.15D-02 MaxDP=2.00D+00              OVMax= 7.25D-01

 Cycle   2  Pass 1  IDiag  1:
 RMSU=  2.86D-03    CP:  1.03D+00
 E= -29752.9328038679     Delta-E=       -1.665180234799 Rises=F Damp=T
 DIIS: error= 1.52D-01 at cycle   2 NSaved=   2.
 NSaved= 2 IEnMin= 2 EnMin= -29752.9328038679     IErMin= 2 ErrMin= 1.52D-01
 ErrMax= 1.52D-01  0.00D+00 EMaxC= 1.00D-01 BMatC= 1.61D+02 BMatP= 3.35D+02
 IDIUse=3 WtCom= 0.00D+00 WtEn= 1.00D+00
 Coeff-Com: -0.196D+01 0.296D+01
 Coeff-En:   0.125D+00 0.875D+00
 Coeff:      0.125D+00 0.875D+00
 Gap=     0.168 Goal=   None    Shift=    0.000
 RMSDP=3.39D-03 MaxDP=3.53D-01 DE=-1.67D+00 OVMax= 9.08D-01

 Cycle   3  Pass 1  IDiag  1:
 RMSU=  2.86D-03    CP:  9.13D-01  6.46D-01
 E= -29754.8271382149     Delta-E=       -1.894334347060 Rises=F Damp=F
 DIIS: error= 7.02D-02 at cycle   3 NSaved=   3.
 NSaved= 3 IEnMin= 3 EnMin= -29754.8271382149     IErMin= 3 ErrMin= 7.02D-02
 ErrMax= 7.02D-02  0.00D+00 EMaxC= 1.00D-01 BMatC= 1.29D+01 BMatP= 1.61D+02
 IDIUse=3 WtCom= 2.98D-01 WtEn= 7.02D-01
 EnCoef did   100 forward-backward iterations
 Coeff-Com:  0.871D+00-0.103D+01 0.116D+01
 Coeff-En:   0.278D+00 0.499D-02 0.717D+00
 Coeff:      0.455D+00-0.304D+00 0.849D+00
 Gap=     0.063 Goal=   None    Shift=    0.000
 RMSDP=7.83D-03 MaxDP=1.11D+00 DE=-1.89D+00 OVMax= 8.19D-01

 Cycle   4  Pass 1  IDiag  1:
 RMSU=  6.42D-03    CP:  1.09D+00  1.01D+00 -2.87D-01
 E= -29746.1722880170     Delta-E=        8.654850197971 Rises=F Damp=F
 DIIS: error= 4.43D-02 at cycle   4 NSaved=   4.
 NSaved= 4 IEnMin= 3 EnMin= -29754.8271382149     IErMin= 4 ErrMin= 4.43D-02
 ErrMax= 4.43D-02  0.00D+00 EMaxC= 1.00D-01 BMatC= 9.35D+00 BMatP= 1.29D+01
 IDIUse=3 WtCom= 5.57D-01 WtEn= 4.43D-01
 EnCoef did     7 forward-backward iterations
 Coeff-Com:  0.589D+00-0.723D+00 0.743D+00 0.391D+00
 Coeff-En:   0.209D+00 0.000D+00 0.680D+00 0.111D+00
 Coeff:      0.421D+00-0.402D+00 0.715D+00 0.267D+00
 Gap=    -0.004 Goal=   None    Shift=    0.000
 RMSDP=6.95D-03 MaxDP=1.06D+00 DE= 8.65D+00 OVMax= 7.60D-01

 Cycle   5  Pass 1  IDiag  1:
 RMSU=  1.72D-03    CP:  9.50D-01  4.80D-01  5.17D-01  8.76D-02
 E= -29756.6344590638     Delta-E=      -10.462171046849 Rises=F Damp=F
 DIIS: error= 1.91D-02 at cycle   5 NSaved=   5.
 NSaved= 5 IEnMin= 5 EnMin= -29756.6344590638     IErMin= 5 ErrMin= 1.91D-02
 ErrMax= 1.91D-02  0.00D+00 EMaxC= 1.00D-01 BMatC= 7.04D-01 BMatP= 9.35D+00
 IDIUse=3 WtCom= 8.09D-01 WtEn= 1.91D-01
 Coeff-Com:  0.255D-01-0.119D-01 0.213D+00 0.110D+00 0.663D+00
 Coeff-En:   0.000D+00 0.000D+00 0.364D-01 0.000D+00 0.964D+00
 Coeff:      0.207D-01-0.959D-02 0.179D+00 0.887D-01 0.721D+00
 Gap=     0.199 Goal=   None    Shift=    0.000
 RMSDP=2.23D-03 MaxDP=3.26D-01 DE=-1.05D+01 OVMax= 2.69D-01

 Cycle   6  Pass 1  IDiag  1:
 RMSU=  1.35D-03    CP:  9.49D-01  4.74D-01  5.90D-01  1.39D-01 -7.02D-03
 E= -29756.4737418732     Delta-E=        0.160717190614 Rises=F Damp=F
 DIIS: error= 8.63D-03 at cycle   6 NSaved=   6.
 NSaved= 6 IEnMin= 5 EnMin= -29756.6344590638     IErMin= 6 ErrMin= 8.63D-03
 ErrMax= 8.63D-03  0.00D+00 EMaxC= 1.00D-01 BMatC= 5.84D-01 BMatP= 7.04D-01
 IDIUse=3 WtCom= 9.14D-01 WtEn= 8.63D-02
 Coeff-Com: -0.494D-01 0.729D-01 0.438D-01 0.144D-01 0.521D+00 0.398D+00
 Coeff-En:   0.000D+00 0.000D+00 0.000D+00 0.000D+00 0.563D+00 0.437D+00
 Coeff:     -0.452D-01 0.666D-01 0.400D-01 0.132D-01 0.524D+00 0.401D+00
 Gap=     0.107 Goal=   None    Shift=    0.000
 RMSDP=1.15D-03 MaxDP=1.73D-01 DE= 1.61D-01 OVMax= 1.49D-01

 Cycle   7  Pass 1  IDiag  1:
 RMSU=  5.64D-04    CP:  9.49D-01  4.59D-01  5.97D-01  1.16D-01  4.05D-01
                    CP:  4.89D-01
 E= -29756.9933422165     Delta-E=       -0.519600343279 Rises=F Damp=F
 DIIS: error= 3.04D-03 at cycle   7 NSaved=   7.
 NSaved= 7 IEnMin= 7 EnMin= -29756.9933422165     IErMin= 7 ErrMin= 3.04D-03
 ErrMax= 3.04D-03  0.00D+00 EMaxC= 1.00D-01 BMatC= 5.31D-02 BMatP= 5.84D-01
 IDIUse=3 WtCom= 9.70D-01 WtEn= 3.04D-02
 Coeff-Com: -0.500D-01 0.698D-01 0.462D-02-0.512D-03 0.306D+00 0.282D+00
 Coeff-Com:  0.389D+00
 Coeff-En:   0.000D+00 0.000D+00 0.000D+00 0.000D+00 0.000D+00 0.654D-01
 Coeff-En:   0.935D+00
 Coeff:     -0.485D-01 0.677D-01 0.448D-02-0.496D-03 0.297D+00 0.275D+00
 Coeff:      0.405D+00
 Gap=     0.102 Goal=   None    Shift=    0.000
 RMSDP=4.27D-04 MaxDP=4.33D-02 DE=-5.20D-01 OVMax= 5.72D-02

 Cycle   8  Pass 1  IDiag  1:
 RMSU=  2.71D-04    CP:  9.52D-01  4.77D-01  5.82D-01  1.24D-01  4.64D-01
                    CP:  4.81D-01  4.66D-01
 E= -29757.0447193871     Delta-E=       -0.051377170639 Rises=F Damp=F
 DIIS: error= 7.20D-04 at cycle   8 NSaved=   8.
 NSaved= 8 IEnMin= 8 EnMin= -29757.0447193871     IErMin= 8 ErrMin= 7.20D-04
 ErrMax= 7.20D-04  0.00D+00 EMaxC= 1.00D-01 BMatC= 5.78D-03 BMatP= 5.31D-02
 IDIUse=3 WtCom= 9.93D-01 WtEn= 7.20D-03
 Coeff-Com: -0.190D-01 0.261D-01-0.200D-02 0.127D-04 0.115D+00 0.108D+00
 Coeff-Com:  0.253D+00 0.519D+00
 Coeff-En:   0.000D+00 0.000D+00 0.000D+00 0.000D+00 0.000D+00 0.000D+00
 Coeff-En:   0.107D+00 0.893D+00
 Coeff:     -0.188D-01 0.259D-01-0.198D-02 0.126D-04 0.114D+00 0.107D+00
 Coeff:      0.252D+00 0.522D+00
 Gap=     0.093 Goal=   None    Shift=    0.000
 RMSDP=2.05D-04 MaxDP=2.26D-02 DE=-5.14D-02 OVMax= 2.31D-02

 Cycle   9  Pass 1  IDiag  1:
 RMSU=  1.70D-04    CP:  9.50D-01  4.81D-01  5.80D-01  1.28D-01  4.74D-01
                    CP:  5.10D-01  5.91D-01  7.40D-01
 E= -29757.0487426498     Delta-E=       -0.004023262671 Rises=F Damp=F
 DIIS: error= 4.12D-04 at cycle   9 NSaved=   9.
 NSaved= 9 IEnMin= 9 EnMin= -29757.0487426498     IErMin= 9 ErrMin= 4.12D-04
 ErrMax= 4.12D-04  0.00D+00 EMaxC= 1.00D-01 BMatC= 1.61D-03 BMatP= 5.78D-03
 IDIUse=3 WtCom= 9.96D-01 WtEn= 4.12D-03
 Coeff-Com: -0.248D-02 0.327D-02-0.113D-02 0.141D-02 0.274D-01 0.255D-01
 Coeff-Com:  0.109D+00 0.384D+00 0.453D+00
 Coeff-En:   0.000D+00 0.000D+00 0.000D+00 0.000D+00 0.000D+00 0.000D+00
 Coeff-En:   0.000D+00 0.260D+00 0.740D+00
 Coeff:     -0.247D-02 0.326D-02-0.112D-02 0.140D-02 0.273D-01 0.254D-01
 Coeff:      0.109D+00 0.383D+00 0.454D+00
 Gap=     0.096 Goal=   None    Shift=    0.000
 RMSDP=1.67D-04 MaxDP=2.23D-02 DE=-4.02D-03 OVMax= 9.51D-03

 Cycle  10  Pass 1  IDiag  1:
 RMSU=  1.30D-04    CP:  9.53D-01  4.83D-01  5.78D-01  1.30D-01  4.99D-01
                    CP:  5.21D-01  6.22D-01  1.03D+00  1.12D+00
 E= -29757.0502124033     Delta-E=       -0.001469753501 Rises=F Damp=F
 DIIS: error= 1.54D-04 at cycle  10 NSaved=  10.
 NSaved=10 IEnMin=10 EnMin= -29757.0502124033     IErMin=10 ErrMin= 1.54D-04
 ErrMax= 1.54D-04  0.00D+00 EMaxC= 1.00D-01 BMatC= 2.13D-04 BMatP= 1.61D-03
 IDIUse=3 WtCom= 9.98D-01 WtEn= 1.54D-03
 Coeff-Com: -0.593D-03 0.715D-03-0.781D-03 0.731D-03 0.708D-02 0.744D-02
 Coeff-Com:  0.547D-01 0.217D+00 0.314D+00 0.400D+00
 Coeff-En:   0.000D+00 0.000D+00 0.000D+00 0.000D+00 0.000D+00 0.000D+00
 Coeff-En:   0.000D+00 0.000D+00 0.108D+00 0.892D+00
 Coeff:     -0.592D-03 0.713D-03-0.779D-03 0.729D-03 0.706D-02 0.743D-02
 Coeff:      0.546D-01 0.217D+00 0.314D+00 0.401D+00
 Gap=     0.095 Goal=   None    Shift=    0.000
 RMSDP=1.71D-04 MaxDP=1.99D-02 DE=-1.47D-03 OVMax= 3.38D-03

 Cycle  11  Pass 1  IDiag  1:
 RMSU=  6.11D-05    CP:  9.56D-01  4.87D-01  5.78D-01  1.32D-01  5.18D-01
                    CP:  5.45D-01  6.85D-01  1.23D+00  1.66D+00  1.75D+00
 E= -29757.0503892115     Delta-E=       -0.000176808207 Rises=F Damp=F
 DIIS: error= 5.80D-05 at cycle  11 NSaved=  11.
 NSaved=11 IEnMin=11 EnMin= -29757.0503892115     IErMin=11 ErrMin= 5.80D-05
 ErrMax= 5.80D-05  0.00D+00 EMaxC= 1.00D-01 BMatC= 3.41D-05 BMatP= 2.13D-04
 IDIUse=1 WtCom= 1.00D+00 WtEn= 0.00D+00
 Coeff-Com: -0.225D-03 0.258D-03-0.458D-03 0.202D-03 0.554D-03 0.157D-02
 Coeff-Com:  0.244D-01 0.970D-01 0.156D+00 0.297D+00 0.424D+00
 Coeff:     -0.225D-03 0.258D-03-0.458D-03 0.202D-03 0.554D-03 0.157D-02
 Coeff:      0.244D-01 0.970D-01 0.156D+00 0.297D+00 0.424D+00
 Gap=     0.095 Goal=   None    Shift=    0.000
 RMSDP=2.78D-04 MaxDP=3.37D-02 DE=-1.77D-04 OVMax= 1.80D-03

 Cycle  12  Pass 1  IDiag  1:
 RMSU=  3.94D-05    CP:  9.61D-01  4.94D-01  5.77D-01  1.36D-01  5.50D-01
                    CP:  5.85D-01  7.87D-01  1.57D+00  2.46D+00  3.00D+00
                    CP:  1.93D+00
 E= -29757.0504240316     Delta-E=       -0.000034820077 Rises=F Damp=F
 DIIS: error= 6.82D-05 at cycle  12 NSaved=  12.
 NSaved=12 IEnMin=12 EnMin= -29757.0504240316     IErMin=11 ErrMin= 5.80D-05
 ErrMax= 6.82D-05  0.00D+00 EMaxC= 1.00D-01 BMatC= 8.20D-06 BMatP= 3.41D-05
 IDIUse=1 WtCom= 1.00D+00 WtEn= 0.00D+00
 Coeff-Com: -0.822D-04 0.845D-04-0.264D-03 0.116D-03-0.529D-04 0.733D-03
 Coeff-Com:  0.149D-01 0.571D-01 0.939D-01 0.199D+00 0.336D+00 0.299D+00
 Coeff:     -0.822D-04 0.845D-04-0.264D-03 0.116D-03-0.529D-04 0.733D-03
 Coeff:      0.149D-01 0.571D-01 0.939D-01 0.199D+00 0.336D+00 0.299D+00
 Gap=     0.095 Goal=   None    Shift=    0.000
 RMSDP=3.10D-04 MaxDP=3.85D-02 DE=-3.48D-05 OVMax= 4.02D-04

 Cycle  13  Pass 1  IDiag  1:
 RMSU=  1.76D-04    CP:  9.66D-01  5.02D-01  5.74D-01  1.41D-01  5.90D-01
                    CP:  6.28D-01  8.94D-01  1.95D+00  3.00D+00  3.00D+00
                    CP:  3.00D+00  3.00D+00
 E= -29757.0504336934     Delta-E=       -0.000009661795 Rises=F Damp=F
 DIIS: error= 9.47D-05 at cycle  13 NSaved=  13.
 NSaved=13 IEnMin=13 EnMin= -29757.0504336934     IErMin=11 ErrMin= 5.80D-05
 ErrMax= 9.47D-05  0.00D+00 EMaxC= 1.00D-01 BMatC= 5.96D-06 BMatP= 8.20D-06
 IDIUse=1 WtCom= 1.00D+00 WtEn= 0.00D+00
 Coeff-Com: -0.820D-04 0.770D-04-0.341D-03 0.127D-03-0.551D-03 0.561D-03
 Coeff-Com:  0.179D-01 0.685D-01 0.116D+00 0.259D+00 0.475D+00 0.621D+00
 Coeff-Com: -0.557D+00
 Coeff:     -0.820D-04 0.770D-04-0.341D-03 0.127D-03-0.551D-03 0.561D-03
 Coeff:      0.179D-01 0.685D-01 0.116D+00 0.259D+00 0.475D+00 0.621D+00
 Coeff:     -0.557D+00
 Gap=     0.095 Goal=   None    Shift=    0.000
 RMSDP=5.24D-04 MaxDP=6.74D-02 DE=-9.66D-06 OVMax= 2.45D-04

 Cycle  14  Pass 1  IDiag  1:
 RMSU=  3.28D-05    CP:  9.57D-01  4.90D-01  5.78D-01  1.34D-01  5.24D-01
                    CP:  5.54D-01  7.15D-01  1.31D+00  1.84D+00  2.10D+00
                    CP:  1.13D+00  3.93D-02 -1.01D-02
 E= -29757.0504240779     Delta-E=        0.000009615484 Rises=F Damp=F
 DIIS: error= 4.94D-05 at cycle  14 NSaved=  14.
 NSaved=14 IEnMin=13 EnMin= -29757.0504336934     IErMin=14 ErrMin= 4.94D-05
 ErrMax= 4.94D-05  0.00D+00 EMaxC= 1.00D-01 BMatC= 3.75D-06 BMatP= 5.96D-06
 IDIUse=1 WtCom= 1.00D+00 WtEn= 0.00D+00
 Coeff-Com:  0.563D-04-0.936D-04-0.151D-03 0.747D-04-0.745D-03 0.766D-04
 Coeff-Com:  0.105D-01 0.367D-01 0.652D-01 0.175D+00 0.388D+00 0.791D+00
 Coeff-Com: -0.126D+01 0.792D+00
 Coeff:      0.563D-04-0.936D-04-0.151D-03 0.747D-04-0.745D-03 0.766D-04
 Coeff:      0.105D-01 0.367D-01 0.652D-01 0.175D+00 0.388D+00 0.791D+00
 Coeff:     -0.126D+01 0.792D+00
 Gap=     0.095 Goal=   None    Shift=    0.000
 RMSDP=4.68D-04 MaxDP=6.11D-02 DE= 9.62D-06 OVMax= 3.86D-04

 Cycle  15  Pass 1  IDiag  1:
 RMSU=  3.70D-05    CP:  9.51D-01  4.82D-01  5.81D-01  1.27D-01  4.66D-01
                    CP:  4.92D-01  5.52D-01  7.15D-01  4.71D-01 -1.64D-01
                    CP: -6.08D-01 -1.16D+00  9.49D-02  2.46D+00
 E= -29757.0504208407     Delta-E=        0.000003237205 Rises=F Damp=F
 DIIS: error= 1.27D-05 at cycle  15 NSaved=  15.
 NSaved=15 IEnMin=13 EnMin= -29757.0504336934     IErMin=15 ErrMin= 1.27D-05
 ErrMax= 1.27D-05  0.00D+00 EMaxC= 1.00D-01 BMatC= 5.16D-07 BMatP= 3.75D-06
 IDIUse=1 WtCom= 1.00D+00 WtEn= 0.00D+00
 Coeff-Com:  0.432D-04-0.621D-04-0.216D-04 0.599D-05-0.312D-03-0.204D-04
 Coeff-Com:  0.323D-02 0.104D-01 0.192D-01 0.626D-01 0.159D+00 0.406D+00
 Coeff-Com: -0.799D+00 0.582D+00 0.556D+00
 Coeff:      0.432D-04-0.621D-04-0.216D-04 0.599D-05-0.312D-03-0.204D-04
 Coeff:      0.323D-02 0.104D-01 0.192D-01 0.626D-01 0.159D+00 0.406D+00
 Coeff:     -0.799D+00 0.582D+00 0.556D+00
 Gap=     0.095 Goal=   None    Shift=    0.000
 RMSDP=1.03D-04 MaxDP=1.16D-02 DE= 3.24D-06 OVMax= 1.55D-04

 Cycle  16  Pass 1  IDiag  1:
 RMSU=  2.40D-05    CP:  9.50D-01  4.80D-01  5.82D-01  1.26D-01  4.52D-01
                    CP:  4.81D-01  5.21D-01  5.92D-01  2.16D-01 -6.35D-01
                    CP: -9.98D-01 -1.37D+00  1.17D-01  2.01D+00  1.77D+00
 E= -29757.0504204003     Delta-E=        0.000000440414 Rises=F Damp=F
 DIIS: error= 5.31D-06 at cycle  16 NSaved=  16.
 NSaved=16 IEnMin=13 EnMin= -29757.0504336934     IErMin=16 ErrMin= 5.31D-06
 ErrMax= 5.31D-06  0.00D+00 EMaxC= 1.00D-01 BMatC= 8.19D-08 BMatP= 5.16D-07
 IDIUse=1 WtCom= 1.00D+00 WtEn= 0.00D+00
 Coeff-Com:  0.225D-04-0.307D-04 0.392D-05-0.412D-05-0.827D-04-0.404D-05
 Coeff-Com:  0.100D-02 0.332D-02 0.637D-02 0.222D-01 0.611D-01 0.181D+00
 Coeff-Com: -0.408D+00 0.299D+00 0.360D+00 0.474D+00
 Coeff:      0.225D-04-0.307D-04 0.392D-05-0.412D-05-0.827D-04-0.404D-05
 Coeff:      0.100D-02 0.332D-02 0.637D-02 0.222D-01 0.611D-01 0.181D+00
 Coeff:     -0.408D+00 0.299D+00 0.360D+00 0.474D+00
 Gap=     0.095 Goal=   None    Shift=    0.000
 RMSDP=3.82D-05 MaxDP=7.34D-03 DE= 4.40D-07 OVMax= 5.68D-05

 Cycle  17  Pass 1  IDiag  1:
 RMSU=  1.60D-05    CP:  9.49D-01  4.80D-01  5.82D-01  1.26D-01  4.47D-01
                    CP:  4.79D-01  5.13D-01  5.59D-01  1.65D-01 -7.67D-01
                    CP: -1.12D+00 -1.49D+00  1.28D-01  1.84D+00  2.17D+00
                    CP:  1.73D+00
 E= -29757.0504201295     Delta-E=        0.000000270724 Rises=F Damp=F
 DIIS: error= 4.91D-06 at cycle  17 NSaved=  17.
 NSaved=17 IEnMin=13 EnMin= -29757.0504336934     IErMin=17 ErrMin= 4.91D-06
 ErrMax= 4.91D-06  0.00D+00 EMaxC= 1.00D-01 BMatC= 2.49D-08 BMatP= 8.19D-08
 IDIUse=1 WtCom= 1.00D+00 WtEn= 0.00D+00
 Coeff-Com:  0.114D-04-0.156D-04 0.201D-05-0.207D-05-0.453D-04-0.424D-05
 Coeff-Com:  0.604D-03 0.215D-02 0.412D-02 0.134D-01 0.366D-01 0.111D+00
 Coeff-Com: -0.261D+00 0.185D+00 0.223D+00 0.342D+00 0.344D+00
 Coeff:      0.114D-04-0.156D-04 0.201D-05-0.207D-05-0.453D-04-0.424D-05
 Coeff:      0.604D-03 0.215D-02 0.412D-02 0.134D-01 0.366D-01 0.111D+00
 Coeff:     -0.261D+00 0.185D+00 0.223D+00 0.342D+00 0.344D+00
 Gap=     0.095 Goal=   None    Shift=    0.000
 RMSDP=2.35D-05 MaxDP=5.76D-03 DE= 2.71D-07 OVMax= 1.58D-05

 Cycle  18  Pass 1  IDiag  1:
 RMSU=  9.38D-06    CP:  9.49D-01  4.80D-01  5.82D-01  1.26D-01  4.45D-01
                    CP:  4.80D-01  5.12D-01  5.47D-01  1.64D-01 -8.11D-01
                    CP: -1.15D+00 -1.53D+00  1.32D-01  1.80D+00  2.42D+00
                    CP:  2.17D+00  1.88D+00
 E= -29757.0504201360     Delta-E=       -0.000000006454 Rises=F Damp=F
 DIIS: error= 6.75D-06 at cycle  18 NSaved=  18.
 NSaved=18 IEnMin=13 EnMin= -29757.0504336934     IErMin=17 ErrMin= 4.91D-06
 ErrMax= 6.75D-06  0.00D+00 EMaxC= 1.00D-01 BMatC= 2.46D-08 BMatP= 2.49D-08
 IDIUse=1 WtCom= 1.00D+00 WtEn= 0.00D+00
 Coeff-Com:  0.103D-04-0.139D-04 0.311D-05-0.243D-05-0.363D-04-0.474D-05
 Coeff-Com:  0.548D-03 0.206D-02 0.396D-02 0.126D-01 0.346D-01 0.109D+00
 Coeff-Com: -0.269D+00 0.188D+00 0.234D+00 0.412D+00 0.625D+00-0.352D+00
 Coeff:      0.103D-04-0.139D-04 0.311D-05-0.243D-05-0.363D-04-0.474D-05
 Coeff:      0.548D-03 0.206D-02 0.396D-02 0.126D-01 0.346D-01 0.109D+00
 Coeff:     -0.269D+00 0.188D+00 0.234D+00 0.412D+00 0.625D+00-0.352D+00
 Gap=     0.095 Goal=   None    Shift=    0.000
 RMSDP=1.81D-05 MaxDP=3.83D-03 DE=-6.45D-09 OVMax= 7.47D-06

 Error on total polarization charges =  0.02899
 SCF Done:  E(RPBE-PBE) =  -29757.0504201     A.U. after   18 cycles
            NFock= 18  Conv=0.18D-04     -V/T= 2.0139
 KE= 2.934912846344D+04 PE=-1.020144950264D+05 EE= 2.711232467739D+04
 Leave Link  502 at Fri Sep  7 15:10:28 2018, MaxMem=  2013265920 cpu:     55588.2
 (Enter /scr/programs/g09/l801.exe)
 Range of M.O.s used for correlation:     1  1793
 NBasis=  1793 NAE=   284 NBE=   284 NFC=     0 NFV=     0
 NROrb=   1793 NOA=   284 NOB=   284 NVA=  1509 NVB=  1509

 **** Warning!!: The largest alpha MO coefficient is  0.72498592D+02


 **** Warning!!: The smallest alpha delta epsilon is  0.94695813D-01

 Leave Link  801 at Fri Sep  7 15:10:28 2018, MaxMem=  2013265920 cpu:         1.1
 (Enter /scr/programs/g09/l1002.exe)
 Minotr:  Closed shell wavefunction.
 NEqPCM:  Using equilibrium solvation (IEInf=0, Eps=   4.7113, EpsInf=   2.0906)
          Direct CPHF calculation.
          Differentiating once with respect to magnetic field using GIAOs.
          Electric field/nuclear overlap derivatives assumed to be zero.
          Requested convergence is 1.0D-08 RMS, and 1.0D-07 maximum.
          Secondary convergence is 1.0D-12 RMS, and 1.0D-12 maximum.
          NewPWx=T KeepS1=F KeepF1=F KeepIn=T MapXYZ=F SortEE=F KeepMc=T.
          MDV=    2013263531 using IRadAn=       2.
 Defaulting to unpruned grid for atomic number  78.
 Generate precomputed XC quadrature information.
          Solving linear equations simultaneously, MaxMat=      72.
 FoFJK:  IHMeth= 1 ICntrl=    6127 DoSepK=F KAlg= 0 I1Cent=   0 FoldK=F
 IRaf=         1 NMat=   1 IRICut=       1 DoRegI=T DoRafI=F ISym2E= 0.
 Defaulting to unpruned grid for atomic number  78.
 Defaulting to unpruned grid for atomic number  78.
 Defaulting to unpruned grid for atomic number  78.
 Defaulting to unpruned grid for atomic number  78.
 Defaulting to unpruned grid for atomic number  78.
 Defaulting to unpruned grid for atomic number  78.
 Defaulting to unpruned grid for atomic number  78.
 Defaulting to unpruned grid for atomic number  78.
          There are     3 degrees of freedom in the 1st order CPHF.  IDoFFX=0 NUNeed=     3.
      3 vectors produced by pass  0 Test12= 1.43D-11 3.33D-08 XBig12= 1.30D+03 2.82D+00.
 AX will form     3 AO Fock derivatives at one time.
 InvSVY:  IOpt=1 It=  1 EMax= 0.00D+00
 Solved reduced A of dimension     3 with     3 vectors.
 Calculating GIAO nuclear magnetic shielding tensors.
 SCF GIAO Magnetic shielding tensor (ppm):
      1  Pt   Isotropic =  3228.1625   Anisotropy =  1120.4508
   XX=  3975.0068   YX=     1.6950   ZX=    16.3446
   XY=     7.5199   YY=  3597.5732   ZY=  -280.6957
   XZ=    12.6403   YZ=  -451.1696   ZZ=  2111.9075
   Eigenvalues:  2026.5479  3682.8099  3975.1297
      2  Cl   Isotropic =   695.4133   Anisotropy =   166.3858
   XX=   644.9534   YX=    -1.2332   ZX=    -5.9070
   XY=    -6.1931   YY=   782.3395   ZY=    60.3761
   XZ=    -0.6211   YZ=    58.1809   ZZ=   658.9471
   Eigenvalues:   634.8151   645.0877   806.3372
      3  Sn   Isotropic =  2116.6663   Anisotropy =   762.0916
   XX=  1937.1349   YX=    -4.5441   ZX=    -0.0755
   XY=    -4.7772   YY=  2552.2642   ZY=  -250.7351
   XZ=     1.0707   YZ=  -219.7766   ZZ=  1860.5998
   Eigenvalues:  1788.1621  1937.1095  2624.7274
      4  Cl   Isotropic =   742.5673   Anisotropy =   270.0856
   XX=   788.0343   YX=   -75.2237   ZX=   109.6293
   XY=   -71.6404   YY=   678.4121   ZY=   -63.8504
   XZ=   118.1612   YZ=   -42.2309   ZZ=   761.2555
   Eigenvalues:   641.2033   663.8744   922.6244
      5  Cl   Isotropic =   753.5676   Anisotropy =   304.3285
   XX=   685.8614   YX=     2.6116   ZX=    -1.4620
   XY=     3.3748   YY=   823.8910   ZY=   167.2506
   XZ=    -2.4224   YZ=   162.8426   ZZ=   750.9504
   Eigenvalues:   618.2229   686.0266   956.4533
      6  Cl   Isotropic =   744.3275   Anisotropy =   266.3049
   XX=   785.4580   YX=    72.2335   ZX=  -108.4892
   XY=    71.7414   YY=   683.4681   ZY=   -64.0934
   XZ=  -117.6294   YZ=   -43.2525   ZZ=   764.0563
   Eigenvalues:   645.6411   665.4772   921.8640
      7  P    Isotropic =   257.6656   Anisotropy =    85.3550
   XX=   310.6560   YX=    -4.6612   ZX=    11.2500
   XY=   -12.8282   YY=   203.8670   ZY=    -5.5783
   XZ=    10.9552   YZ=   -39.4933   ZZ=   258.4739
   Eigenvalues:   195.5900   262.8379   314.5690
      8  P    Isotropic =   258.0726   Anisotropy =    84.3984
   XX=   309.3258   YX=     9.6515   ZX=   -10.8468
   XY=    16.6538   YY=   205.9968   ZY=    -6.3697
   XZ=    -9.8014   YZ=   -39.9156   ZZ=   258.8953
   Eigenvalues:   196.6153   263.2644   314.3382
      9  C    Isotropic =    43.3458   Anisotropy =   163.3458
   XX=   115.0301   YX=    34.8748   ZX=   -67.8166
   XY=    40.1121   YY=   -17.8327   ZY=     5.8289
   XZ=   -53.7420   YZ=    13.4258   ZZ=    32.8401
   Eigenvalues:   -39.2901    17.0846   152.2430
     10  C    Isotropic =    40.0668   Anisotropy =   185.9061
   XX=   118.2759   YX=    33.1770   ZX=   -79.7553
   XY=    24.4134   YY=    26.9095   ZY=   -29.2570
   XZ=   -79.2236   YZ=   -26.1302   ZZ=   -24.9850
   Eigenvalues:   -62.5845    18.7807   164.0042
     11  C    Isotropic =    48.8671   Anisotropy =   177.6655
   XX=   133.5655   YX=    31.4258   ZX=   -52.6685
   XY=    27.5601   YY=   -21.5481   ZY=   -50.5432
   XZ=   -49.8733   YZ=   -48.9562   ZZ=    34.5839
   Eigenvalues:   -50.6034    29.8939   167.3108
     12  C    Isotropic =    51.9143   Anisotropy =   149.9463
   XX=   125.0745   YX=    29.4862   ZX=   -37.1416
   XY=    24.5829   YY=   -13.5843   ZY=   -48.0029
   XZ=   -39.1545   YZ=   -46.7464   ZZ=    44.2527
   Eigenvalues:   -40.3342    44.1986   151.8785
     13  H    Isotropic =    24.2878   Anisotropy =    12.1332
   XX=    23.1611   YX=    -5.1675   ZX=    -2.1181
   XY=    -3.2928   YY=    30.4022   ZY=    -2.8478
   XZ=    -1.8149   YZ=    -0.2438   ZZ=    19.3002
   Eigenvalues:    17.6271    22.8598    32.3766
     14  C    Isotropic =    52.2698   Anisotropy =   146.7261
   XX=   109.1226   YX=    21.5404   ZX=   -70.3251
   XY=    21.7537   YY=    53.0052   ZY=   -14.0031
   XZ=   -70.4500   YZ=   -20.2603   ZZ=    -5.3185
   Eigenvalues:   -39.2407    45.9629   150.0872
     15  H    Isotropic =    24.1836   Anisotropy =    13.8676
   XX=    21.7773   YX=    -6.0923   ZX=     5.5452
   XY=    -2.8636   YY=    25.9998   ZY=    -3.7433
   XZ=     4.7475   YZ=    -4.3717   ZZ=    24.7736
   Eigenvalues:    17.6594    21.4626    33.4286
     16  C    Isotropic =    34.7339   Anisotropy =   113.9268
   XX=    71.5569   YX=    54.0526   ZX=   -46.8587
   XY=    47.5540   YY=    -7.7142   ZY=    23.2781
   XZ=   -38.6129   YZ=    17.2653   ZZ=    40.3590
   Eigenvalues:   -48.9203    42.4370   110.6851
     17  H    Isotropic =    24.1366   Anisotropy =     8.5156
   XX=    22.9362   YX=    -2.8903   ZX=     3.2568
   XY=    -3.0067   YY=    24.4675   ZY=    -3.0362
   XZ=     3.1988   YZ=    -1.5286   ZZ=    25.0060
   Eigenvalues:    20.1566    22.4394    29.8136
     18  C    Isotropic =    49.6275   Anisotropy =   179.0264
   XX=   100.1697   YX=   -67.9848   ZX=    28.3293
   XY=   -71.6471   YY=    28.1940   ZY=   -54.4491
   XZ=    42.7555   YZ=   -64.2143   ZZ=    20.5187
   Eigenvalues:   -40.1297    20.0337   168.9784
     19  C    Isotropic =    47.2095   Anisotropy =   186.5555
   XX=    85.8488   YX=   -51.4986   ZX=    76.7104
   XY=   -54.5777   YY=    60.6012   ZY=   -46.5490
   XZ=    77.5998   YZ=   -40.8627   ZZ=    -4.8215
   Eigenvalues:   -50.5418    20.5905   171.5798
     20  C    Isotropic =    43.7605   Anisotropy =   186.1557
   XX=    45.3028   YX=   -89.4484   ZX=    78.6357
   XY=   -87.4428   YY=    39.6487   ZY=   -28.3892
   XZ=    66.0792   YZ=    -9.6554   ZZ=    46.3301
   Eigenvalues:   -61.6700    25.0873   167.8643
     21  C    Isotropic =    48.3698   Anisotropy =   156.5055
   XX=    56.7523   YX=   -81.0558   ZX=    60.5940
   XY=   -81.2726   YY=    37.9193   ZY=    -7.6130
   XZ=    54.5544   YZ=    -6.7793   ZZ=    50.4378
   Eigenvalues:   -47.1740    39.5766   152.7068
     22  H    Isotropic =    23.8877   Anisotropy =    10.1139
   XX=    25.1632   YX=     3.8905   ZX=     0.4415
   XY=     4.0486   YY=    26.2459   ZY=     4.9414
   XZ=     0.9694   YZ=     1.8957   ZZ=    20.2541
   Eigenvalues:    18.5064    22.5264    30.6303
     23  C    Isotropic =    50.8662   Anisotropy =   160.9057
   XX=    82.0049   YX=   -39.0649   ZX=    70.6780
   XY=   -37.4740   YY=    72.9428   ZY=   -48.6170
   XZ=    68.1418   YZ=   -41.7428   ZZ=    -2.3492
   Eigenvalues:   -45.6378    40.0997   158.1366
     24  H    Isotropic =    23.3667   Anisotropy =    12.0339
   XX=    21.4581   YX=    -1.2100   ZX=     2.7700
   XY=     0.2894   YY=    21.3710   ZY=     6.1464
   XZ=     3.1656   YZ=     5.4960   ZZ=    27.2711
   Eigenvalues:    16.8918    21.8190    31.3893
     25  C    Isotropic =    25.1042   Anisotropy =   111.1200
   XX=    61.4291   YX=   -46.9589   ZX=     4.4677
   XY=   -45.8539   YY=   -11.0928   ZY=   -55.3510
   XZ=     7.7519   YZ=   -54.4967   ZZ=    24.9763
   Eigenvalues:   -60.9918    37.1203    99.1842
     26  H    Isotropic =    23.7198   Anisotropy =     7.5228
   XX=    22.3995   YX=     2.1127   ZX=     0.1132
   XY=     1.9620   YY=    23.2392   ZY=     4.7965
   XZ=    -0.6086   YZ=     3.2400   ZZ=    25.5205
   Eigenvalues:    19.1866    23.2377    28.7349
     27  C    Isotropic =    46.6550   Anisotropy =   154.1523
   XX=    16.0697   YX=     2.7423   ZX=    19.4729
   XY=   -15.2836   YY=   148.3867   ZY=   -12.7722
   XZ=    18.3346   YZ=    -7.9894   ZZ=   -24.4913
   Eigenvalues:   -32.2381    22.7800   149.4233
     28  C    Isotropic =    42.0951   Anisotropy =   178.0458
   XX=    -3.7683   YX=     7.5338   ZX=   -39.7525
   XY=    17.2807   YY=   159.4128   ZY=    -4.6518
   XZ=   -38.8935   YZ=    -7.3380   ZZ=   -29.3591
   Eigenvalues:   -57.9437    23.4368   160.7923
     29  C    Isotropic =    35.1902   Anisotropy =   167.1211
   XX=   -64.5507   YX=     4.3875   ZX=    -3.1310
   XY=     1.3993   YY=   145.8897   ZY=   -10.6985
   XZ=    -0.5788   YZ=    -7.4246   ZZ=    24.2315
   Eigenvalues:   -64.6243    23.5906   146.6042
     30  C    Isotropic =    49.9842   Anisotropy =   153.5812
   XX=   -42.1792   YX=     8.7207   ZX=     1.3739
   XY=    13.9751   YY=   151.2830   ZY=    -7.4797
   XZ=     4.9437   YZ=    -6.6826   ZZ=    40.8487
   Eigenvalues:   -42.9947    40.5756   152.3716
     31  H    Isotropic =    24.0656   Anisotropy =    12.0967
   XX=    28.3444   YX=     0.6070   ZX=    -7.0844
   XY=    -2.1113   YY=    20.8499   ZY=     0.6029
   XZ=    -4.6220   YZ=    -1.0680   ZZ=    23.0024
   Eigenvalues:    19.0372    21.0295    32.1301
     32  C    Isotropic =    49.6803   Anisotropy =   151.7099
   XX=    17.1875   YX=     1.6624   ZX=   -39.1189
   XY=     4.3502   YY=   150.0224   ZY=   -10.0332
   XZ=   -41.4989   YZ=    -9.5573   ZZ=   -18.1688
   Eigenvalues:   -44.7272    42.9479   150.8203
     33  H    Isotropic =    22.8322   Anisotropy =    15.1095
   XX=    19.7015   YX=    -1.0543   ZX=    -4.8321
   XY=    -1.7371   YY=    18.1605   ZY=     2.6290
   XZ=    -4.2587   YZ=     2.8304   ZZ=    30.6344
   Eigenvalues:    17.3364    18.2549    32.9052
     34  C    Isotropic =    34.1605   Anisotropy =   127.7404
   XX=    21.4890   YX=     5.3012   ZX=    31.8981
   XY=    11.0074   YY=   117.5610   ZY=   -19.4447
   XZ=    33.6485   YZ=   -11.0400   ZZ=   -36.5686
   Eigenvalues:   -53.0640    36.2246   119.3208
     35  H    Isotropic =    23.7448   Anisotropy =     7.4825
   XX=    23.3622   YX=    -0.0577   ZX=    -1.8007
   XY=    -0.3406   YY=    19.3259   ZY=     0.6669
   XZ=     0.0289   YZ=     0.5041   ZZ=    28.5464
   Eigenvalues:    19.2838    23.2176    28.7332
     36  C    Isotropic =    49.8930   Anisotropy =   179.8201
   XX=    90.7752   YX=    68.8836   ZX=   -31.0854
   XY=    71.1116   YY=    31.9969   ZY=   -59.0106
   XZ=   -45.0485   YZ=   -67.7769   ZZ=    26.9070
   Eigenvalues:   -39.1863    19.0923   169.7731
     37  C    Isotropic =    48.0786   Anisotropy =   186.3873
   XX=    74.8644   YX=    47.4614   ZX=   -79.3445
   XY=    51.2137   YY=    63.7846   ZY=   -55.1214
   XZ=   -79.8779   YZ=   -48.7004   ZZ=     5.5867
   Eigenvalues:   -49.7108    21.6098   172.3368
     38  C    Isotropic =    42.5892   Anisotropy =   185.3870
   XX=    30.7449   YX=    84.2034   ZX=   -79.3698
   XY=    84.9747   YY=    44.9396   ZY=   -34.3562
   XZ=   -68.3754   YZ=   -15.4772   ZZ=    52.0831
   Eigenvalues:   -62.7402    24.3272   166.1805
     39  C    Isotropic =    49.9308   Anisotropy =   157.2849
   XX=    43.0558   YX=    79.8007   ZX=   -62.6682
   XY=    79.3683   YY=    48.6845   ZY=   -15.7080
   XZ=   -55.5772   YZ=   -13.8100   ZZ=    58.0520
   Eigenvalues:   -45.6046    40.6096   154.7874
     40  H    Isotropic =    23.8820   Anisotropy =    10.3935
   XX=    25.3506   YX=    -4.0779   ZX=    -0.3598
   XY=    -4.4010   YY=    26.0198   ZY=     5.0107
   XZ=    -0.8167   YZ=     2.0017   ZZ=    20.2755
   Eigenvalues:    18.3030    22.5319    30.8110
     41  C    Isotropic =    50.7295   Anisotropy =   159.9429
   XX=    73.1145   YX=    35.4244   ZX=   -70.2022
   XY=    34.1925   YY=    73.6340   ZY=   -53.5337
   XZ=   -70.1630   YZ=   -49.4655   ZZ=     5.4402
   Eigenvalues:   -45.0182    39.8487   157.3581
     42  H    Isotropic =    23.3261   Anisotropy =    12.2585
   XX=    21.5198   YX=     1.1677   ZX=    -3.0519
   XY=    -0.3232   YY=    21.5904   ZY=     6.4912
   XZ=    -3.5327   YZ=     5.6282   ZZ=    26.8681
   Eigenvalues:    16.5831    21.8967    31.4984
     43  C    Isotropic =    26.1413   Anisotropy =   105.4585
   XX=    54.0789   YX=    49.8852   ZX=    -1.0009
   XY=    42.3528   YY=    -3.0754   ZY=   -51.0105
   XZ=    -6.1438   YZ=   -57.6522   ZZ=    27.4203
   Eigenvalues:   -55.9405    37.9174    96.4470
     44  H    Isotropic =    23.8188   Anisotropy =     7.4720
   XX=    22.6295   YX=    -2.0157   ZX=     0.0075
   XY=    -1.7933   YY=    23.4732   ZY=     4.9015
   XZ=     0.7438   YZ=     3.3865   ZZ=    25.3536
   Eigenvalues:    19.2605    23.3957    28.8001
     45  C    Isotropic =    47.2104   Anisotropy =   153.1986
   XX=    17.0140   YX=    -6.8706   ZX=   -18.9924
   XY=    11.9850   YY=   148.5240   ZY=   -13.0638
   XZ=   -17.5184   YZ=    -9.1522   ZZ=   -23.9069
   Eigenvalues:   -31.3674    23.6558   149.3427
     46  C    Isotropic =    42.1161   Anisotropy =   177.9190
   XX=    -3.4515   YX=   -12.9347   ZX=    40.1436
   XY=   -23.2332   YY=   158.2074   ZY=    -4.5261
   XZ=    39.8853   YZ=    -6.1515   ZZ=   -28.4075
   Eigenvalues:   -58.0381    23.6577   160.7288
     47  C    Isotropic =    35.2328   Anisotropy =   167.9864
   XX=   -64.3605   YX=   -10.6705   ZX=     2.8384
   XY=    -7.0321   YY=   146.0681   ZY=   -11.9530
   XZ=     0.5112   YZ=    -7.5820   ZZ=    23.9908
   Eigenvalues:   -64.7502    23.2248   147.2238
     48  C    Isotropic =    49.9487   Anisotropy =   152.9341
   XX=   -40.8119   YX=   -14.7709   ZX=    -1.6268
   XY=   -21.1489   YY=   149.7435   ZY=    -8.3413
   XZ=    -4.9077   YZ=    -6.9767   ZZ=    40.9145
   Eigenvalues:   -42.6786    40.6199   151.9048
     49  H    Isotropic =    24.0166   Anisotropy =    12.0855
   XX=    28.1650   YX=    -0.4237   ZX=     7.2302
   XY=     2.3436   YY=    20.9568   ZY=     0.6847
   XZ=     4.6080   YZ=    -0.7795   ZZ=    22.9279
   Eigenvalues:    18.9149    21.0613    32.0735
     50  C    Isotropic =    49.4080   Anisotropy =   151.6421
   XX=    16.5053   YX=    -5.5301   ZX=    40.1186
   XY=    -7.7586   YY=   149.3105   ZY=   -10.4725
   XZ=    42.2520   YZ=    -8.6043   ZZ=   -17.5918
   Eigenvalues:   -45.2107    42.9319   150.5027
     51  H    Isotropic =    22.8460   Anisotropy =    15.1367
   XX=    19.6613   YX=     1.1693   ZX=     4.7030
   XY=     1.7000   YY=    18.1844   ZY=     2.7639
   XZ=     4.1708   YZ=     2.9472   ZZ=    30.6924
   Eigenvalues:    17.3059    18.2950    32.9371
     52  C    Isotropic =    34.4789   Anisotropy =   127.5512
   XX=    22.9502   YX=    -8.0220   ZX=   -30.0162
   XY=   -15.6092   YY=   116.6389   ZY=   -24.0859
   XZ=   -32.5296   YZ=   -12.4027   ZZ=   -36.1525
   Eigenvalues:   -52.3478    36.2714   119.5130
     53  H    Isotropic =    23.5520   Anisotropy =    10.5185
   XX=    26.4389   YX=     1.0472   ZX=     4.0241
   XY=     0.9628   YY=    18.9483   ZY=     1.4875
   XZ=     4.7643   YZ=     1.6609   ZZ=    25.2687
   Eigenvalues:    18.5778    21.5138    30.5643
     54  C    Isotropic =    44.7181   Anisotropy =   167.3808
   XX=   122.1247   YX=   -37.5809   ZX=    64.8206
   XY=   -42.6892   YY=   -14.4459   ZY=     5.6890
   XZ=    53.0058   YZ=    14.3918   ZZ=    26.4755
   Eigenvalues:   -38.5728    16.4218   156.3053
     55  C    Isotropic =    40.4515   Anisotropy =   188.6554
   XX=   125.9682   YX=   -35.1998   ZX=    74.7446
   XY=   -27.6543   YY=    28.2808   ZY=   -30.2226
   XZ=    72.6791   YZ=   -25.2480   ZZ=   -32.8943
   Eigenvalues:   -64.2324    19.3652   166.2218
     56  C    Isotropic =    49.0562   Anisotropy =   179.5089
   XX=   138.1338   YX=   -37.2020   ZX=    47.2037
   XY=   -31.4814   YY=   -20.2672   ZY=   -48.6832
   XZ=    45.8754   YZ=   -50.0704   ZZ=    29.3019
   Eigenvalues:   -50.8750    29.3148   168.7287
     57  C    Isotropic =    52.0408   Anisotropy =   150.5877
   XX=   128.5639   YX=   -31.3481   ZX=    34.1496
   XY=   -28.6830   YY=   -13.5542   ZY=   -47.6137
   XZ=    34.0799   YZ=   -45.7275   ZZ=    41.1129
   Eigenvalues:   -40.8512    44.5411   152.4327
     58  H    Isotropic =    24.3448   Anisotropy =    12.1807
   XX=    22.9747   YX=     5.0898   ZX=     2.1735
   XY=     3.2838   YY=    30.5293   ZY=    -3.2340
   XZ=     1.6386   YZ=    -0.5602   ZZ=    19.5303
   Eigenvalues:    17.6469    22.9223    32.4652
     59  C    Isotropic =    52.3654   Anisotropy =   148.6253
   XX=   117.5778   YX=   -23.3606   ZX=    62.2726
   XY=   -23.3850   YY=    53.5888   ZY=   -12.3420
   XZ=    65.7409   YZ=   -20.0258   ZZ=   -14.0704
   Eigenvalues:   -40.4875    46.1347   151.4489
     60  H    Isotropic =    24.2544   Anisotropy =    13.8116
   XX=    21.4242   YX=     5.5517   ZX=    -5.6382
   XY=     2.4843   YY=    26.0928   ZY=    -3.9577
   XZ=    -4.5511   YZ=    -4.7295   ZZ=    25.2462
   Eigenvalues:    17.7623    21.5388    33.4622
     61  C    Isotropic =    32.7388   Anisotropy =   108.4514
   XX=    74.3602   YX=   -47.2788   ZX=    40.2679
   XY=   -45.3458   YY=    -9.2488   ZY=    27.2621
   XZ=    36.6873   YZ=    24.0753   ZZ=    33.1051
   Eigenvalues:   -49.3614    42.5381   105.0398
     62  H    Isotropic =    24.1020   Anisotropy =     8.4374
   XX=    22.5726   YX=     2.8447   ZX=    -3.0849
   XY=     2.9383   YY=    24.4103   ZY=    -3.0881
   XZ=    -3.0518   YZ=    -1.5894   ZZ=    25.3229
   Eigenvalues:    20.0737    22.5053    29.7269
     63  H    Isotropic =    23.7216   Anisotropy =     7.4662
   XX=    23.3121   YX=     0.1823   ZX=     1.7453
   XY=     0.4347   YY=    19.3306   ZY=     0.6964
   XZ=    -0.0933   YZ=     0.5791   ZZ=    28.5222
   Eigenvalues:    19.2707    23.1952    28.6991
     64  H    Isotropic =    24.0283   Anisotropy =     8.7925
   XX=    21.3635   YX=     3.4176   ZX=    -2.1323
   XY=     2.7135   YY=    28.5960   ZY=     0.0412
   XZ=    -2.0392   YZ=    -0.9004   ZZ=    22.1254
   Eigenvalues:    19.1084    23.0865    29.8899
     65  H    Isotropic =    23.4932   Anisotropy =     8.9554
   XX=    23.8549   YX=    -3.9581   ZX=    -1.6204
   XY=    -4.9873   YY=    23.9997   ZY=     2.0741
   XZ=    -1.6917   YZ=     2.2255   ZZ=    22.6249
   Eigenvalues:    19.4096    21.6065    29.4634
     66  H    Isotropic =    24.0145   Anisotropy =     8.7120
   XX=    21.4573   YX=    -3.3818   ZX=     2.1378
   XY=    -2.6374   YY=    28.5881   ZY=     0.1296
   XZ=     2.0709   YZ=    -0.7185   ZZ=    21.9979
   Eigenvalues:    19.1018    23.1191    29.8225
     67  H    Isotropic =    23.5540   Anisotropy =    10.4642
   XX=    26.5138   YX=    -0.7807   ZX=    -4.0693
   XY=    -0.7237   YY=    18.9148   ZY=     1.4275
   XZ=    -4.7486   YZ=     1.5000   ZZ=    25.2335
[...]
 Alpha virt. eigenvalues --    1.27481   1.27606   1.27846   1.28364   1.28593
 Alpha virt. eigenvalues --    1.28937   1.29126   1.29218   1.29240   1.30075
 Alpha virt. eigenvalues --    1.30375   1.30838   1.30958   1.31361   1.31807
 Alpha virt. eigenvalues --    1.32220   1.32292   1.32431   1.32685   1.32852
 Alpha virt. eigenvalues --    1.33102   1.33381   1.33968   1.34237   1.34307
 Alpha virt. eigenvalues --    1.34676   1.34998   1.35141   1.35370   1.36183
 Alpha virt. eigenvalues --    1.36553   1.36917   1.37303   1.37366   1.37924
 Alpha virt. eigenvalues --    1.37994   1.38237   1.38487   1.39415   1.39543
 Alpha virt. eigenvalues --    1.39972   1.40194   1.40348   1.40678   1.41012
 Alpha virt. eigenvalues --    1.41159   1.41276   1.41582   1.42106   1.42947
 Alpha virt. eigenvalues --    1.43229   1.43402   1.43607   1.44048   1.44159
 Alpha virt. eigenvalues --    1.44608   1.44927   1.45359   1.45520   1.46424
 Alpha virt. eigenvalues --    1.46743   1.46972   1.47021   1.47315   1.47620
 Alpha virt. eigenvalues --    1.47988   1.48813   1.48987   1.49265   1.49515
 Alpha virt. eigenvalues --    1.50426   1.50622   1.50698   1.50931   1.51328
 Alpha virt. eigenvalues --    1.51725   1.51822   1.51890   1.52004   1.52629
 Alpha virt. eigenvalues --    1.52949   1.53263   1.54057   1.54976   1.55657
 Alpha virt. eigenvalues --    1.55677   1.56573   1.56676   1.56825   1.57198
 Alpha virt. eigenvalues --    1.57509   1.58435   1.58577   1.58701   1.59070
 Alpha virt. eigenvalues --    1.59237   1.59402   1.60369   1.60577   1.60879
 Alpha virt. eigenvalues --    1.61037   1.61698   1.61814   1.62082   1.62488
 Alpha virt. eigenvalues --    1.62722   1.63061   1.63223   1.63989   1.64246
 Alpha virt. eigenvalues --    1.64713   1.64768   1.64976   1.65210   1.65770
 Alpha virt. eigenvalues --    1.65923   1.66654   1.66993   1.67269   1.67699
 Alpha virt. eigenvalues --    1.67976   1.68304   1.68672   1.68736   1.69358
 Alpha virt. eigenvalues --    1.69412   1.69538   1.69819   1.70481   1.70568
 Alpha virt. eigenvalues --    1.70821   1.71071   1.71444   1.71595   1.71794
 Alpha virt. eigenvalues --    1.71877   1.72081   1.72369   1.72900   1.73028
 Alpha virt. eigenvalues --    1.73188   1.73319   1.73678   1.73838   1.74178
 Alpha virt. eigenvalues --    1.74319   1.74831   1.75052   1.75138   1.75374
 Alpha virt. eigenvalues --    1.76279   1.76806   1.77357   1.77657   1.78664
 Alpha virt. eigenvalues --    1.79423   1.80260   1.80596   1.80888   1.81678
 Alpha virt. eigenvalues --    1.82166   1.82406   1.83110   1.83439   1.83647
 Alpha virt. eigenvalues --    1.83706   1.84151   1.85556   1.85683   1.85985
 Alpha virt. eigenvalues --    1.86320   1.86435   1.87347   1.88035   1.88342
 Alpha virt. eigenvalues --    1.88418   1.88681   1.89114   1.89391   1.89689
 Alpha virt. eigenvalues --    1.90417   1.90632   1.91108   1.91580   1.91920
 Alpha virt. eigenvalues --    1.92088   1.93300   1.93823   1.94152   1.95079
 Alpha virt. eigenvalues --    1.95162   1.95756   1.95934   1.96192   1.96788
 Alpha virt. eigenvalues --    1.97083   1.97511   1.97816   1.98013   1.98280
 Alpha virt. eigenvalues --    1.98347   1.98953   1.99265   1.99381   1.99524
 Alpha virt. eigenvalues --    1.99624   1.99855   2.00161   2.00284   2.00496
 Alpha virt. eigenvalues --    2.00861   2.01131   2.01372   2.01666   2.01742
 Alpha virt. eigenvalues --    2.01893   2.02044   2.02247   2.02426   2.02534
 Alpha virt. eigenvalues --    2.02826   2.02944   2.03186   2.03365   2.03694
 Alpha virt. eigenvalues --    2.04514   2.04626   2.05092   2.05933   2.06108
 Alpha virt. eigenvalues --    2.06342   2.07530   2.07695   2.08073   2.08440
 Alpha virt. eigenvalues --    2.08550   2.08783   2.09179   2.09396   2.09446
 Alpha virt. eigenvalues --    2.09953   2.11031   2.11252   2.11360   2.11638
 Alpha virt. eigenvalues --    2.12186   2.12569   2.12706   2.13581   2.14536
 Alpha virt. eigenvalues --    2.14721   2.14998   2.16091   2.16203   2.16354
 Alpha virt. eigenvalues --    2.16776   2.17847   2.17861   2.18118   2.18797
 Alpha virt. eigenvalues --    2.19204   2.19377   2.19848   2.20128   2.20366
 Alpha virt. eigenvalues --    2.20485   2.21020   2.21218   2.21609   2.22190
 Alpha virt. eigenvalues --    2.22595   2.22899   2.23433   2.23879   2.24506
 Alpha virt. eigenvalues --    2.24973   2.25196   2.26732   2.27306   2.27417
 Alpha virt. eigenvalues --    2.27790   2.28137   2.28583   2.28873   2.29000
 Alpha virt. eigenvalues --    2.29356   2.29747   2.29921   2.30280   2.30415
 Alpha virt. eigenvalues --    2.31214   2.31339   2.31588   2.31794   2.32227
 Alpha virt. eigenvalues --    2.32955   2.33257   2.33341   2.33733   2.33966
 Alpha virt. eigenvalues --    2.33998   2.34427   2.34836   2.35132   2.35356
 Alpha virt. eigenvalues --    2.35614   2.35899   2.36364   2.37144   2.37332
 Alpha virt. eigenvalues --    2.37798   2.38301   2.38995   2.39558   2.40056
 Alpha virt. eigenvalues --    2.40360   2.40977   2.41628   2.42018   2.44987
 Alpha virt. eigenvalues --    2.45176   2.45683   2.45774   2.46929   2.47521
 Alpha virt. eigenvalues --    2.47998   2.48389   2.49034   2.49488   2.49797
 Alpha virt. eigenvalues --    2.50265   2.50608   2.51534   2.52340   2.52848
 Alpha virt. eigenvalues --    2.53135   2.53375   2.53583   2.54388   2.54537
 Alpha virt. eigenvalues --    2.54676   2.54905   2.55383   2.56309   2.56505
 Alpha virt. eigenvalues --    2.57086   2.57925   2.58211   2.59199   2.59663
 Alpha virt. eigenvalues --    2.59801   2.60355   2.60694   2.61338   2.61564
 Alpha virt. eigenvalues --    2.62368   2.62618   2.63002   2.63827   2.64044
 Alpha virt. eigenvalues --    2.64406   2.64478   2.67444   2.67664   2.68271
 Alpha virt. eigenvalues --    2.68546   2.68735   2.69055   2.69809   2.70179
 Alpha virt. eigenvalues --    2.70378   2.70601   2.71235   2.71790   2.72468
 Alpha virt. eigenvalues --    2.72603   2.73263   2.73521   2.74616   2.75038
 Alpha virt. eigenvalues --    2.75429   2.75759   2.76058   2.77446   2.78465
 Alpha virt. eigenvalues --    2.80107   2.80826   2.82893   2.83191   2.84371
 Alpha virt. eigenvalues --    2.84656   2.85582   2.85676   2.85963   2.86516
 Alpha virt. eigenvalues --    2.86730   2.88238   2.88867   2.88917   2.89183
 Alpha virt. eigenvalues --    2.89847   2.90118   2.90222   2.90799   2.91251
 Alpha virt. eigenvalues --    2.91390   2.91462   2.92039   2.92206   2.93097
 Alpha virt. eigenvalues --    2.96528   2.97005   2.97940   2.98726   2.98943
 Alpha virt. eigenvalues --    2.99506   3.01897   3.03392   3.03990   3.04542
 Alpha virt. eigenvalues --    3.05499   3.05541   3.05855   3.07996   3.08779
 Alpha virt. eigenvalues --    3.10393   3.10900   3.11084   3.12361   3.13597
 Alpha virt. eigenvalues --    3.13897   3.14030   3.14478   3.14939   3.15141
 Alpha virt. eigenvalues --    3.16344   3.16718   3.17158   3.17324   3.18041
 Alpha virt. eigenvalues --    3.18188   3.18821   3.18954   3.19327   3.19678
 Alpha virt. eigenvalues --    3.19905   3.22152   3.23302   3.23550   3.25316
 Alpha virt. eigenvalues --    3.29897   3.30484   3.30870   3.31627   3.33746
 Alpha virt. eigenvalues --    3.34616   3.36264   3.42446   3.44034   3.44736
 Alpha virt. eigenvalues --    3.45242   3.45394   3.45995   3.47251   3.47618
 Alpha virt. eigenvalues --    3.49035   3.49153   3.49260   3.49889   3.50549
 Alpha virt. eigenvalues --    3.51734   3.58837   3.64470   3.64725   3.68219
 Alpha virt. eigenvalues --    3.68337   3.68851   3.69014   3.69481   3.70257
 Alpha virt. eigenvalues --    3.73851   3.74762   3.77305   3.90523   3.93100
 Alpha virt. eigenvalues --    3.94969   3.97349   3.98398   4.05615   4.12892
 Alpha virt. eigenvalues --    4.13285   4.13893   4.14906   4.16325   4.17950
 Alpha virt. eigenvalues --    4.21214   4.21356   4.21390   4.22680   4.24035
 Alpha virt. eigenvalues --    4.24970   4.26756   4.27260   4.30346   4.31228
 Alpha virt. eigenvalues --    4.31406   4.31859   4.34253   4.34454   4.39230
 Alpha virt. eigenvalues --    4.40186   4.41301   4.41622   4.43263   4.45400
 Alpha virt. eigenvalues --    4.46688   4.46974   4.49822   4.50957   4.51885
 Alpha virt. eigenvalues --    4.52398   4.52926   4.75051   4.75326   4.76411
 Alpha virt. eigenvalues --    4.76537   4.76693   4.76974   5.57480   5.69403
 Alpha virt. eigenvalues --    5.69584   5.83532   5.95127   6.15912   6.70630
 Alpha virt. eigenvalues --    6.70919   6.74542   6.74970   6.75715   6.76473
 Alpha virt. eigenvalues --    6.78199   6.79352   6.79659   6.80972   6.81499
 Alpha virt. eigenvalues --    6.83110   6.84698   6.86347   6.87004   6.92381
 Alpha virt. eigenvalues --    6.96966   7.08655   7.09165   7.09939   7.10833
 Alpha virt. eigenvalues --    7.12180   7.12974   7.15505   7.15663   7.17231
 Alpha virt. eigenvalues --    7.18838   7.19364   7.20080   7.69726   7.70941
 Alpha virt. eigenvalues --    7.77641   7.78768   7.78948   7.84129   8.46937
 Alpha virt. eigenvalues --    8.47742   8.48242   8.48825   8.49774   8.50153
 Alpha virt. eigenvalues --    8.50824   8.55022   8.61294   8.98544   9.83479
 Alpha virt. eigenvalues --    9.83603   9.83843   9.83990   9.84362   9.84451
 Alpha virt. eigenvalues --    9.86079   9.89176   9.89537   9.90950   9.92301
 Alpha virt. eigenvalues --    9.93874   9.94962   9.97266   9.97777   9.98346
 Alpha virt. eigenvalues --    9.98616   9.98989   9.99022   9.99664  10.00569
 Alpha virt. eigenvalues --   10.02965  10.04802  10.08693  10.09269  10.10165
 Alpha virt. eigenvalues --   10.10303  10.10410  10.10746  10.11608  10.12519
 Alpha virt. eigenvalues --   10.13475  10.15377  10.15445  10.28116  14.15317
 Alpha virt. eigenvalues --   14.20371  15.70264  16.78478  16.83862  16.83946
 Alpha virt. eigenvalues --   16.84164  16.84608  16.84955  16.85891  16.89560
 Alpha virt. eigenvalues --   16.93819  17.01819  17.01943  17.02220  17.02547
 Alpha virt. eigenvalues --   17.03636  17.04096  17.04335  17.04544  17.04640
 Alpha virt. eigenvalues --   17.05400  17.05894  17.06563  17.08504  17.10630
 Alpha virt. eigenvalues --   17.11242  17.12968  17.14231  17.16508  17.16703
 Alpha virt. eigenvalues --   17.21776  17.22176  17.23199  17.23626  17.25685
 Alpha virt. eigenvalues --   17.28842  17.30557  17.31334  17.31665  17.31864
 Alpha virt. eigenvalues --   17.32206  17.32368  17.32924  17.33703  17.36861
 Alpha virt. eigenvalues --   17.37595  17.39331  17.39520  21.05356  21.15861
 Alpha virt. eigenvalues --   21.36236  25.53739  25.62598  25.63517  26.15187
 Alpha virt. eigenvalues --   31.69421  31.72170  31.73499  31.78371  31.80818
 Alpha virt. eigenvalues --   42.91179  43.01915  43.03238  43.06560  43.15052
 Alpha virt. eigenvalues --   61.85988  61.90030  63.06301  78.10760  78.14448
 Alpha virt. eigenvalues --   78.14486  78.14618  78.15081  78.15397  78.16178
 Alpha virt. eigenvalues --   78.19684  78.23627  78.36722  82.19168  86.16386
 Alpha virt. eigenvalues --   86.25750  86.41427  89.27760  89.28062  89.28368
 Alpha virt. eigenvalues --   89.28661  89.29686  89.30035  89.30418  89.30732
 Alpha virt. eigenvalues --   89.30934  89.31184  89.32150  89.33005  89.35483
 Alpha virt. eigenvalues --   89.36244  89.37557  89.38952  89.41312  89.41937
 Alpha virt. eigenvalues --   89.46918  89.48088  89.49281  89.49442  89.52166
 Alpha virt. eigenvalues --   89.54679  89.56829  89.57458  89.58672  89.58888
 Alpha virt. eigenvalues --   89.59839  89.60035  89.60166  89.60727  89.63524
 Alpha virt. eigenvalues --   89.64526  89.65572  89.65951 121.86664 121.92885
 Alpha virt. eigenvalues --  121.93884 239.23396 257.29917 332.19106 332.23291
 Alpha virt. eigenvalues --  428.75813 428.83213 428.95441 431.72747 431.76770
 Alpha virt. eigenvalues --  431.76810 431.76965 431.77445 431.77777 431.78594
 Alpha virt. eigenvalues --  431.82000 431.86200 431.99776 590.22874 590.27682
 Alpha virt. eigenvalues --  590.28411 772.97484 839.626692068.574392529.99726
 Alpha virt. eigenvalues -- 5495.37439******************************
          Condensed to atoms (all electrons):
 Mulliken charges:
               1
     1  Pt   0.171816
     2  Cl  -0.397570
     3  Sn   0.270560
     4  Cl  -0.142691
     5  Cl  -0.164642
     6  Cl  -0.139848
     7  P    0.990469
     8  P    1.011764
     9  C   -1.000180
    10  C    0.449187
    11  C    0.168109
    12  C    0.093017
    13  H    0.095519
    14  C    0.011415
    15  H    0.097283
    16  C   -0.340270
    17  H    0.130298
    18  C   -0.873667
    19  C    0.129401
    20  C    0.402645
    21  C    0.018664
    22  H    0.095606
    23  C    0.197836
    24  H    0.062249
    25  C   -0.354751
    26  H    0.128228
    27  C   -0.834975
    28  C    0.212317
    29  C    0.265455
    30  C    0.231073
    31  H    0.103123
    32  C   -0.105086
    33  H    0.071363
    34  C   -0.398726
    35  H    0.131385
    36  C   -0.877234
    37  C    0.127358
    38  C    0.355028
    39  C    0.022731
    40  H    0.090849
    41  C    0.239293
    42  H    0.058939
    43  C   -0.329815
    44  H    0.128618
    45  C   -0.864187
    46  C    0.238916
    47  C    0.282479
    48  C    0.233232
    49  H    0.100482
    50  C   -0.118087
    51  H    0.071570
    52  C   -0.406050
    53  H    0.124256
    54  C   -0.970942
    55  C    0.442185
    56  C    0.144143
    57  C    0.080108
    58  H    0.094699
    59  C    0.017284
    60  H    0.098185
    61  C   -0.331424
    62  H    0.130173
    63  H    0.130825
    64  H    0.129322
    65  H    0.116362
    66  H    0.130190
    67  H    0.124505
    68  H    0.118037
    69  Cl  -0.114194
    70  Cl  -0.117175
    71  Cl  -0.117140
    72  Cl  -0.116297
    73  Cl  -0.126728
    74  Cl  -0.126872
 Sum of Mulliken charges =   0.00000
 Mulliken charges with hydrogens summed into heavy atoms:
               1
     1  Pt   0.171816
     2  Cl  -0.397570
     3  Sn   0.270560
     4  Cl  -0.142691
     5  Cl  -0.164642
     6  Cl  -0.139848
     7  P    0.990469
     8  P    1.011764
     9  C   -1.000180
    10  C    0.544706
    11  C    0.265392
    12  C    0.223314
    14  C    0.141604
    16  C   -0.340270
    18  C   -0.873667
    19  C    0.225007
    20  C    0.464893
    21  C    0.146892
    23  C    0.315873
    25  C   -0.354751
    27  C   -0.834975
    28  C    0.315440
    29  C    0.336818
    30  C    0.362458
    32  C    0.019419
    34  C   -0.398726
    36  C   -0.877234
    37  C    0.218207
    38  C    0.413968
    39  C    0.151348
    41  C    0.355655
    43  C   -0.329815
    45  C   -0.864187
    46  C    0.339398
    47  C    0.354049
    48  C    0.364057
    50  C    0.006169
    52  C   -0.406050
    54  C   -0.970942
    55  C    0.536884
    56  C    0.242328
    57  C    0.210281
    59  C    0.146607
    61  C   -0.331424
    69  Cl  -0.114194
    70  Cl  -0.117175
    71  Cl  -0.117140
    72  Cl  -0.116297
    73  Cl  -0.126728
    74  Cl  -0.126872
 Electronic spatial extent (au):  <R**2>=          49011.5656
 Charge=              0.0000 electrons
 Dipole moment (field-independent basis, Debye):
    X=              0.0084    Y=              3.8602    Z=             -1.0983  Tot=              4.0134
 Quadrupole moment (field-independent basis, Debye-Ang):
   XX=           -387.0200   YY=           -467.7085   ZZ=           -416.7164
   XY=              0.9172   XZ=              0.6946   YZ=             20.3860
 Traceless Quadrupole moment (field-independent basis, Debye-Ang):
   XX=             36.7950   YY=            -43.8935   ZZ=              7.0985
   XY=              0.9172   XZ=              0.6946   YZ=             20.3860
 Octapole moment (field-independent basis, Debye-Ang**2):
  XXX=              5.0661  YYY=              2.4869  ZZZ=            -49.1042  XYY=              0.2815
  XXY=            -65.3844  XXZ=             35.4031  XZZ=             -1.3525  YZZ=             -9.9848
  YYZ=             76.1778  XYZ=              1.5352
 Hexadecapole moment (field-independent basis, Debye-Ang**3):
 XXXX=         -30076.2269 YYYY=         -19364.2397 ZZZZ=         -16097.9294 XXXY=             20.2588
 XXXZ=             32.5019 YYYX=             16.8774 YYYZ=            219.7643 ZZZX=              2.0151
 ZZZY=             21.0003 XXYY=          -8630.8621 XXZZ=          -8225.8073 YYZZ=          -6181.7759
 XXYZ=             16.2494 YYXZ=             -1.0522 ZZXY=             -8.5414
 N-N= 1.579599146538D+04 E-N=-1.020144946163D+05  KE= 2.934912846344D+04
 Calculating spin-rotation constants.
 Leave Link  601 at Fri Sep  7 18:48:09 2018, MaxMem=  2013265920 cpu:      1242.4
 (Enter /scr/programs/g09/l9999.exe)
 1\1\GINC-NEQC17\SP\RPBEPBE\Gen\C36H24Cl10P2Pt1Sn1\DIEGO\07-Sep-2018\0\
 \#PBEPBE/gen scf=(maxcycle=1000,conver=4) NMR=GIAO Scrf=(solvent=Chlor
 oform)\\estrutura 7\\0,1\Pt,0,-0.001367,0.432093,-0.045876\Cl,0,0.0005
 68,2.737674,-0.761423\Sn,0,0.004664,-2.079663,0.766729\Cl,0,1.823568,-
 2.847506,2.155928\Cl,0,0.003619,-3.803038,-0.912106\Cl,0,-1.801984,-2.
 869005,2.162421\P,0,2.404114,0.445174,-0.108552\P,0,-2.404476,0.427511
 ,-0.130288\C,0,-3.21109,1.841985,-1.001792\C,0,-3.251161,3.09084,-0.35
 4486\C,0,-3.799351,1.718306,-2.269\C,0,-3.8717,4.186051,-0.951739\H,0,
 -2.80218,3.217255,0.632072\C,0,-4.419533,2.812407,-2.880528\H,0,-3.796
 191,0.764041,-2.796274\C,0,-4.45246,4.039574,-2.216689\H,0,-3.903753,5
 .150642,-0.442988\C,0,-3.001392,-1.062158,-1.028091\C,0,-3.976302,-1.9
 38186,-0.525739\C,0,-2.42693,-1.332109,-2.284885\C,0,-4.386139,-3.0476
 74,-1.269105\H,0,-4.41332,-1.780189,0.460034\C,0,-2.839381,-2.428682,-
 3.040149\H,0,-1.639855,-0.684823,-2.681719\C,0,-3.821891,-3.280919,-2.
 525415\H,0,-5.136972,-3.732116,-0.87111\C,0,-3.21951,0.502724,1.514703
 \C,0,-4.62182,0.588224,1.61174\C,0,-2.455416,0.552965,2.690525\C,0,-5.
 246873,0.688193,2.853829\H,0,-5.242308,0.587076,0.712878\C,0,-3.069138
 ,0.666416,3.939691\H,0,-1.365822,0.511299,2.639545\C,0,-4.462979,0.725
 759,4.013141\H,0,-6.334302,0.746203,2.925983\C,0,3.033507,-1.048922,-0
 .978568\C,0,4.077621,-1.853416,-0.495972\C,0,2.424254,-1.387968,-2.200
 991\C,0,4.519297,-2.958314,-1.226344\H,0,4.546413,-1.642277,0.464979\C
 ,0,2.865655,-2.482391,-2.943602\H,0,1.583685,-0.800009,-2.578715\C,0,3
 .916337,-3.260887,-2.450197\H,0,5.324677,-3.586741,-0.843869\C,0,3.205
 113,0.559075,1.540999\C,0,4.60264,0.688794,1.647388\C,0,2.433455,0.588
 414,2.712042\C,0,5.216224,0.813228,2.893046\H,0,5.228006,0.705451,0.75
 2692\C,0,3.035408,0.724068,3.964656\H,0,1.346619,0.515002,2.655761\C,0
 ,4.425257,0.82886,4.047112\H,0,2.429595,0.74849,4.87109\C,0,3.192812,1
 .853756,-1.005731\C,0,3.273029,3.10311,-0.363467\C,0,3.713213,1.72637,
 -2.301666\C,0,3.869774,4.19415,-0.992439\H,0,2.875599,3.233805,0.64417
 1\C,0,4.307982,2.815966,-2.945037\H,0,3.67534,0.77228,-2.828287\C,0,4.
 384007,4.043461,-2.284606\H,0,3.933895,5.158873,-0.48687\H,0,6.299979,
 0.90696,2.971516\H,0,4.716086,2.708054,-3.951001\H,0,2.388399,-2.74141
 9,-3.889535\H,0,-4.880827,2.707752,-3.863959\H,0,-2.469537,0.706529,4.
 850423\H,0,-2.39212,-2.632874,-4.013834\Cl,0,-4.336977,-4.663359,-3.45
 9457\Cl,0,-5.240374,0.860686,5.570195\Cl,0,5.187111,0.995069,5.608615\
 Cl,0,4.470903,-4.638771,-3.36779\Cl,0,5.13551,5.408254,-3.077342\Cl,0,
 -5.234143,5.409636,-2.96988\\Version=EM64L-G09RevD.01\State=1-A\HF=-29
 757.0504201\RMSD=1.807e-05\Dipole=0.0032922,1.5187247,-0.4321\Quadrupo
 le=27.3561907,-32.6337705,5.2775798,0.6819278,0.5163907,15.1564831\PG=
 C01 [X(C36H24Cl10P2Pt1Sn1)]\\@


 LET US PLACE AT THE END OF EVERY CHAPTER.....THE
 TWO LETTERS USED BY THE ROMAN JUDGES WHEN THEY DID
 NOT UNDERSTAND A PLEADING.
 N. L. -NON LIQUET- IT IS NOT CLEAR.
                                              -- VOLTAIRE
 Job cpu time:       1 days 19 hours 12 minutes 16.9 seconds.
 File lengths (MBytes):  RWF=   2401 Int=      0 D2E=      0 Chk=    175 Scr=      1
 Normal termination of Gaussian 09 at Fri Sep  7 18:48:10 2018.
