 Entering Gaussian System, Link 0=g09
 Input=estrutura34.com
 Output=estrutura34.log
 Initial command:
 /scr/programs/g09/l1.exe "/scr/diego/Gau-9074.inp" -scrdir="/scr/diego/"
 Entering Link 1 = /scr/programs/g09/l1.exe PID=      9075.
  
 Copyright (c) 1988,1990,1992,1993,1995,1998,2003,2009,2013,
            Gaussian, Inc.  All Rights Reserved.
  
 This is part of the Gaussian(R) 09 program.  It is based on
 the Gaussian(R) 03 system (copyright 2003, Gaussian, Inc.),
 the Gaussian(R) 98 system (copyright 1998, Gaussian, Inc.),
 the Gaussian(R) 94 system (copyright 1995, Gaussian, Inc.),
 the Gaussian 92(TM) system (copyright 1992, Gaussian, Inc.),
 the Gaussian 90(TM) system (copyright 1990, Gaussian, Inc.),
 the Gaussian 88(TM) system (copyright 1988, Gaussian, Inc.),
 the Gaussian 86(TM) system (copyright 1986, Carnegie Mellon
 University), and the Gaussian 82(TM) system (copyright 1983,
 Carnegie Mellon University). Gaussian is a federally registered
 trademark of Gaussian, Inc.
  
 This software contains proprietary and confidential information,
 including trade secrets, belonging to Gaussian, Inc.
  
 This software is provided under written license and may be
 used, copied, transmitted, or stored only in accord with that
 written license.
  
 The following legend is applicable only to US Government
 contracts under FAR:
  
                    RESTRICTED RIGHTS LEGEND
  
 Use, reproduction and disclosure by the US Government is
 subject to restrictions as set forth in subparagraphs (a)
 and (c) of the Commercial Computer Software - Restricted
 Rights clause in FAR 52.227-19.
  
 Gaussian, Inc.
 340 Quinnipiac St., Bldg. 40, Wallingford CT 06492
  
  
 ---------------------------------------------------------------
 Warning -- This program may not be used in any manner that
 competes with the business of Gaussian, Inc. or will provide
 assistance to any competitor of Gaussian, Inc.  The licensee
 of this program is prohibited from giving any competitor of
 Gaussian, Inc. access to this program.  By using this program,
 the user acknowledges that Gaussian, Inc. is engaged in the
 business of creating and licensing software in the field of
 computational chemistry and represents and warrants to the
 licensee that it is not a competitor of Gaussian, Inc. and that
 it will not use this program in any manner prohibited above.
 ---------------------------------------------------------------
  

 Cite this work as:
 Gaussian 09, Revision D.01,
 M. J. Frisch, G. W. Trucks, H. B. Schlegel, G. E. Scuseria, 
 M. A. Robb, J. R. Cheeseman, G. Scalmani, V. Barone, B. Mennucci, 
 G. A. Petersson, H. Nakatsuji, M. Caricato, X. Li, H. P. Hratchian, 
 A. F. Izmaylov, J. Bloino, G. Zheng, J. L. Sonnenberg, M. Hada, 
 M. Ehara, K. Toyota, R. Fukuda, J. Hasegawa, M. Ishida, T. Nakajima, 
 Y. Honda, O. Kitao, H. Nakai, T. Vreven, J. A. Montgomery, Jr., 
 J. E. Peralta, F. Ogliaro, M. Bearpark, J. J. Heyd, E. Brothers, 
 K. N. Kudin, V. N. Staroverov, T. Keith, R. Kobayashi, J. Normand, 
 K. Raghavachari, A. Rendell, J. C. Burant, S. S. Iyengar, J. Tomasi, 
 M. Cossi, N. Rega, J. M. Millam, M. Klene, J. E. Knox, J. B. Cross, 
 V. Bakken, C. Adamo, J. Jaramillo, R. Gomperts, R. E. Stratmann, 
 O. Yazyev, A. J. Austin, R. Cammi, C. Pomelli, J. W. Ochterski, 
 R. L. Martin, K. Morokuma, V. G. Zakrzewski, G. A. Voth, 
 P. Salvador, J. J. Dannenberg, S. Dapprich, A. D. Daniels, 
 O. Farkas, J. B. Foresman, J. V. Ortiz, J. Cioslowski, 
 and D. J. Fox, Gaussian, Inc., Wallingford CT, 2013.
 
 ******************************************
 Gaussian 09:  EM64L-G09RevD.01 24-Apr-2013
                30-May-2019 
 ******************************************
 %mem=15Gb
 %nproc=8
 Will use up to    8 processors via shared memory.
 ----------------------------------------------------------------------
 #PBEPBE/gen scf=(maxcycle=1000,conver=4) NMR=GIAO scrf=(solvent=dichlo
 romethane)
 ----------------------------------------------------------------------
 1/38=1/1;
 2/12=2,17=6,18=5,40=1/2;
 3/5=7,11=2,16=1,25=1,30=1,70=2201,72=9,74=1009/1,2,8,3;
 4//1;
 5/5=2,6=4,7=1000,38=5,53=9/2;
 8/6=1,10=90,11=11/1;
 10/13=100,45=16/2;
 6/7=2,8=2,9=2,10=2,28=1/1;
 99/9=1/99;
 Leave Link    1 at Thu May 30 02:27:19 2019, MaxMem=  2013265920 cpu:         0.4
 (Enter /scr/programs/g09/l101.exe)
 ------------
 estrutura 34
 ------------
 Symbolic Z-matrix:
 Charge = -1 Multiplicity = 1
 Pt                   -0.0223   -0.11652  -0.27404 
 Cl                   -0.1164   -2.49226  -0.84655 
 Sn                    2.57385  -0.59099   0.00471 
 Sn                   -2.59844  -0.49034   0.12412 
 Cl                   -3.13366  -2.25069   1.69033 
 Cl                   -3.99582  -1.09872  -1.76312 
 Cl                   -4.00017   1.26459   1.12082 
 Cl                    3.04366  -2.44983   1.49067 
 Cl                    4.15795   0.97617   1.04492 
 Cl                    3.88685  -1.22904  -1.94049 
 P                    -0.0298    2.16454   0.02946 
 C                    -1.37088   2.99324  -0.94005 
 H                    -1.27516   4.07536  -0.75651 
 C                    -0.3254    2.70919   1.76888 
 H                    -0.28105   3.81104   1.78104 
 H                    -1.36979   2.4317    1.98531 
 C                     0.62242   2.10142   2.80528 
 H                     0.5303    1.00539   2.82929 
 H                     1.6763    2.34322   2.60314 
 H                     0.37757   2.48245   3.80854 
 C                     1.52576   2.98049  -0.55751 
 H                     2.34758   2.56359   0.04279 
 H                     1.68199   2.61127  -1.58494 
 C                     1.56188   4.51304  -0.51639 
 H                     1.44039   4.89972   0.50779 
 H                     2.53794   4.86555  -0.88406 
 H                     0.78926   4.97334  -1.15114 
 H                    -2.32553   2.68794  -0.4869 
 C                    -1.34632   2.68239  -2.43678 
 H                    -0.38319   2.95103  -2.90177 
 H                    -1.52151   1.61053  -2.62554 
 H                    -2.13501   3.25253  -2.95754 
 
 NAtoms=     32 NQM=       32 NQMF=       0 NMMI=      0 NMMIF=      0
                NMic=       0 NMicF=      0.
                    Isotopes and Nuclear Properties:
 (Nuclear quadrupole moments (NQMom) in fm**2, nuclear magnetic moments (NMagM)
  in nuclear magnetons)

  Atom         1           2           3           4           5           6           7           8           9          10
 IAtWgt=         195          35         118         118          35          35          35          35          35          35
 AtmWgt= 194.9648000  34.9688527 117.9018000 117.9018000  34.9688527  34.9688527  34.9688527  34.9688527  34.9688527  34.9688527
 NucSpn=           1           3           0           0           3           3           3           3           3           3
 AtZEff=   0.0000000   0.0000000   0.0000000   0.0000000   0.0000000   0.0000000   0.0000000   0.0000000   0.0000000   0.0000000
 NQMom=    0.0000000  -8.1650000   0.0000000   0.0000000  -8.1650000  -8.1650000  -8.1650000  -8.1650000  -8.1650000  -8.1650000
 NMagM=    0.6095000   0.8218740   0.0000000   0.0000000   0.8218740   0.8218740   0.8218740   0.8218740   0.8218740   0.8218740
 AtZNuc=  78.0000000  17.0000000  50.0000000  50.0000000  17.0000000  17.0000000  17.0000000  17.0000000  17.0000000  17.0000000

  Atom        11          12          13          14          15          16          17          18          19          20
 IAtWgt=          31          12           1          12           1           1          12           1           1           1
 AtmWgt=  30.9737634  12.0000000   1.0078250  12.0000000   1.0078250   1.0078250  12.0000000   1.0078250   1.0078250   1.0078250
 NucSpn=           1           0           1           0           1           1           0           1           1           1
 AtZEff=   0.0000000   0.0000000   0.0000000   0.0000000   0.0000000   0.0000000   0.0000000   0.0000000   0.0000000   0.0000000
 NQMom=    0.0000000   0.0000000   0.0000000   0.0000000   0.0000000   0.0000000   0.0000000   0.0000000   0.0000000   0.0000000
 NMagM=    1.1316000   0.0000000   2.7928460   0.0000000   2.7928460   2.7928460   0.0000000   2.7928460   2.7928460   2.7928460
 AtZNuc=  15.0000000   6.0000000   1.0000000   6.0000000   1.0000000   1.0000000   6.0000000   1.0000000   1.0000000   1.0000000

  Atom        21          22          23          24          25          26          27          28          29          30
 IAtWgt=          12           1           1          12           1           1           1           1          12           1
 AtmWgt=  12.0000000   1.0078250   1.0078250  12.0000000   1.0078250   1.0078250   1.0078250   1.0078250  12.0000000   1.0078250
 NucSpn=           0           1           1           0           1           1           1           1           0           1
 AtZEff=   0.0000000   0.0000000   0.0000000   0.0000000   0.0000000   0.0000000   0.0000000   0.0000000   0.0000000   0.0000000
 NQMom=    0.0000000   0.0000000   0.0000000   0.0000000   0.0000000   0.0000000   0.0000000   0.0000000   0.0000000   0.0000000
 NMagM=    0.0000000   2.7928460   2.7928460   0.0000000   2.7928460   2.7928460   2.7928460   2.7928460   0.0000000   2.7928460
 AtZNuc=   6.0000000   1.0000000   1.0000000   6.0000000   1.0000000   1.0000000   1.0000000   1.0000000   6.0000000   1.0000000

  Atom        31          32
 IAtWgt=           1           1
 AtmWgt=   1.0078250   1.0078250
 NucSpn=           1           1
 AtZEff=   0.0000000   0.0000000
 NQMom=    0.0000000   0.0000000
 NMagM=    2.7928460   2.7928460
 AtZNuc=   1.0000000   1.0000000
 Leave Link  101 at Thu May 30 02:27:19 2019, MaxMem=  2013265920 cpu:         1.2
 (Enter /scr/programs/g09/l202.exe)
                          Input orientation:                          
 ---------------------------------------------------------------------
 Center     Atomic      Atomic             Coordinates (Angstroms)
 Number     Number       Type             X           Y           Z
 ---------------------------------------------------------------------
      1         78           0       -0.022297   -0.116523   -0.274042
      2         17           0       -0.116402   -2.492258   -0.846554
      3         50           0        2.573845   -0.590989    0.004708
      4         50           0       -2.598437   -0.490340    0.124117
      5         17           0       -3.133661   -2.250689    1.690333
      6         17           0       -3.995818   -1.098724   -1.763116
      7         17           0       -4.000172    1.264589    1.120818
      8         17           0        3.043663   -2.449825    1.490674
      9         17           0        4.157951    0.976172    1.044924
     10         17           0        3.886845   -1.229035   -1.940487
     11         15           0       -0.029799    2.164542    0.029458
     12          6           0       -1.370878    2.993239   -0.940050
     13          1           0       -1.275158    4.075356   -0.756508
     14          6           0       -0.325398    2.709187    1.768875
     15          1           0       -0.281052    3.811036    1.781038
     16          1           0       -1.369786    2.431703    1.985314
     17          6           0        0.622416    2.101420    2.805282
     18          1           0        0.530299    1.005390    2.829288
     19          1           0        1.676302    2.343221    2.603139
     20          1           0        0.377568    2.482446    3.808535
     21          6           0        1.525763    2.980492   -0.557508
     22          1           0        2.347580    2.563593    0.042791
     23          1           0        1.681988    2.611273   -1.584942
     24          6           0        1.561884    4.513038   -0.516388
     25          1           0        1.440394    4.899721    0.507786
     26          1           0        2.537940    4.865546   -0.884062
     27          1           0        0.789255    4.973344   -1.151140
     28          1           0       -2.325533    2.687938   -0.486897
     29          6           0       -1.346323    2.682386   -2.436784
     30          1           0       -0.383187    2.951026   -2.901770
     31          1           0       -1.521509    1.610527   -2.625536
     32          1           0       -2.135005    3.252529   -2.957544
 ---------------------------------------------------------------------
                    Distance matrix (angstroms):
                    1          2          3          4          5
     1  Pt   0.000000
     2  Cl   2.445556   0.000000
     3  Sn   2.653822   3.402484   0.000000
     4  Sn   2.633395   3.333223   5.174639   0.000000
     5  Cl   4.253707   3.949431   6.178314   2.416263   0.000000
     6  Cl   4.355563   4.222782   6.822277   2.425789   3.741209
     7  Cl   4.435831   5.750489   6.921457   2.457244   3.665020
     8  Cl   4.237763   3.930706   2.425715   6.127018   6.183757
     9  Cl   4.517536   5.820463   2.459153   6.974763   7.999799
    10  Cl   4.392734   4.338019   2.432048   6.845958   7.969576
    11  P    2.301179   4.739270   3.791111   3.695302   5.646834
    12  C    3.454397   5.627888   5.412956   3.843784   6.125773
    13  H    4.401623   6.669661   6.096642   4.834475   7.032774
    14  C    3.500002   5.825734   4.733821   4.255456   5.700253
    15  H    4.440273   6.831022   5.539279   5.159215   6.700009
    16  H    3.662495   5.816858   5.348990   3.675864   5.012291
    17  C    3.849307   5.914697   4.347454   4.927450   5.855944
    18  H    3.345849   5.115035   3.834418   4.398198   5.032283
    19  H    4.148946   6.204517   4.020823   5.696316   6.713640
    20  H    4.856127   6.830925   5.360852   5.591869   6.262434
    21  C    3.473952   5.721123   3.764311   5.433260   7.357192
    22  H    3.591618   5.694187   3.162915   5.813450   7.479018
    23  H    3.473315   5.461268   3.684682   5.555441   7.586605
    24  C    4.899102   7.211090   5.229407   6.538525   8.524422
    25  H    5.283316   7.674582   5.629005   6.746267   8.570225
    26  H    5.634532   7.822034   5.528560   7.488946   9.457027
    27  H    5.228256   7.526500   5.956723   6.553974   8.697695
    28  H    3.635272   5.643053   5.915821   3.247963   5.457420
    29  C    3.776823   5.551439   5.660705   4.265231   6.675545
    30  H    4.055250   5.824468   5.453212   5.089826   7.463937
    31  H    3.280223   4.687424   5.341983   3.624087   6.011219
    32  H    4.797419   6.444658   6.761718   4.870367   7.272241
                    6          7          8          9         10
     6  Cl   0.000000
     7  Cl   3.728585   0.000000
     8  Cl   7.871907   7.971780   0.000000
     9  Cl   8.869850   8.163572   3.630122   0.000000
    10  Cl   7.885735   8.820135   3.738201   3.721440   0.000000
    11  P    5.439810   4.214836   5.733559   4.469971   5.544109
    12  C    4.930711   3.761462   7.417785   6.211009   6.817047
    13  H    5.931809   4.341712   8.141255   6.509130   7.495642
    14  C    6.359806   4.001350   6.167931   4.860850   6.856526
    15  H    7.103961   4.555451   7.094817   5.318183   7.524854
    16  H    5.780198   3.004736   6.599433   5.792994   7.512994
    17  C    7.241496   4.990594   5.320194   4.106708   6.653627
    18  H    6.782566   4.848837   4.477432   4.042854   6.245783
    19  H    7.942551   5.965155   5.106911   3.233487   6.188057
    20  H    7.936912   5.279357   6.066946   4.919116   7.690343
    21  C    6.970032   6.024704   5.998951   3.676071   5.020703
    22  H    7.544042   6.568372   5.264528   2.607991   4.548270
    23  H    6.784785   6.435964   6.076865   3.964864   4.442496
    24  C    7.995890   6.646001   7.396312   4.656896   6.356485
    25  H    8.407778   6.571891   7.586328   4.802902   7.038524
    26  H    8.890177   7.728735   7.707774   4.633859   6.330837
    27  H    7.755092   6.469565   8.195424   5.669938   6.977653
    28  H    4.330981   2.723065   7.689971   6.878385   7.486604
    29  C    4.665881   4.659356   7.812586   6.732792   6.552219
    30  H    5.545098   5.666380   7.759256   6.332328   6.052285
    31  H    3.769087   4.505398   7.366847   6.791977   6.146763
    32  H    4.880849   4.905486   8.895060   7.797618   7.575058
                   11         12         13         14         15
    11  P    0.000000
    12  C    1.850723   0.000000
    13  H    2.412441   1.101738   0.000000
    14  C    1.846507   2.917531   3.024239   0.000000
    15  H    2.417044   3.043162   2.738111   1.102808   0.000000
    16  H    2.385857   2.978771   3.198146   1.102084   1.769076
    17  C    2.852116   4.335444   4.492612   1.530317   2.188177
    18  H    3.081622   4.666254   5.053939   2.181655   3.103026
    19  H    3.092982   4.718264   4.795689   2.199257   2.581001
    20  H    3.814241   5.085964   5.109646   2.169282   2.511907
    21  C    1.852047   2.921820   3.013882   2.985375   3.069720
    22  H    2.410674   3.870078   4.006063   3.185181   3.389295
    23  H    2.395010   3.143529   3.402140   3.909894   4.077104
    24  C    2.889089   3.330221   2.880630   3.469602   3.027769
    25  H    3.141889   3.692445   3.106805   3.083311   2.402037
    26  H    3.837085   4.334458   3.896202   4.459447   4.020132
    27  H    3.155001   2.937950   2.285589   3.859449   3.330793
    28  H    2.410593   1.099965   1.760939   3.014880   3.253426
    29  C    2.843193   1.528871   2.183748   4.327883   4.494294
    30  H    3.055411   2.196739   2.581062   4.677259   4.762220
    31  H    3.095339   2.185279   3.103117   4.684932   5.079259
    32  H    3.812845   2.172879   2.502187   5.090082   5.118909
                   16         17         18         19         20
    16  H    0.000000
    17  C    2.179519   0.000000
    18  H    2.521306   1.100156   0.000000
    19  H    3.109371   1.100002   1.776023   0.000000
    20  H    2.525857   1.100749   1.778748   1.777378   0.000000
    21  C    3.892469   3.591262   4.045042   3.227765   4.541887
    22  H    4.196379   3.289552   3.673564   2.656042   4.250689
    23  H    4.700244   4.544965   4.836391   4.196654   5.550469
    24  C    4.380086   4.210937   4.955937   3.801664   4.922486
    25  H    4.021357   3.711882   4.624225   3.313887   4.227028
    26  H    5.424687   4.992082   5.720174   4.389204   5.689186
    27  H    4.578072   4.891734   5.626324   4.668941   5.565288
    28  H    2.662881   4.457897   4.688691   5.067725   5.079342
    29  C    4.429260   5.629628   5.836569   5.886605   6.481958
    30  H    5.012650   5.856920   6.120864   5.908887   6.769528
    31  H    4.685860   5.859281   5.859284   6.172672   6.764910
    32  H    5.068645   6.491424   6.755805   6.802507   7.258504
                   21         22         23         24         25
    21  C    0.000000
    22  H    1.099794   0.000000
    23  H    1.102882   1.759205   0.000000
    24  C    1.533523   2.174933   2.184707   0.000000
    25  H    2.196720   2.548863   3.110446   1.101461   0.000000
    26  H    2.164386   2.488831   2.511102   1.100968   1.772855
    27  H    2.205970   3.108174   2.562135   1.100794   1.783659
    28  H    3.863037   4.704680   4.155936   4.294633   4.479239
    29  C    3.445203   4.450542   3.146643   3.936607   4.620915
    30  H    3.023330   4.034555   2.472734   3.451555   4.329888
    31  H    3.929302   4.795639   3.513790   4.730791   5.423041
    32  H    4.385818   5.437850   4.106663   4.605987   5.244543
                   26         27         28         29         30
    26  H    0.000000
    27  H    1.772244   0.000000
    28  H    5.343509   3.919975   0.000000
    29  C    4.718541   3.385567   2.181958   0.000000
    30  H    4.033549   2.920462   3.110231   1.102729   0.000000
    31  H    5.486985   4.338434   2.526073   1.102361   1.780174
    32  H    5.360743   3.843904   2.541488   1.103754   1.778449
                   31         32
    31  H    0.000000
    32  H    1.784034   0.000000
 Stoichiometry    C6H15Cl7PPtSn2(1-)
 Framework group  C1[X(C6H15Cl7PPtSn2)]
 Deg. of freedom    90
 Full point group                 C1      NOp   1
 Largest Abelian subgroup         C1      NOp   1
 Largest concise Abelian subgroup C1      NOp   1
                         Standard orientation:                         
 ---------------------------------------------------------------------
 Center     Atomic      Atomic             Coordinates (Angstroms)
 Number     Number       Type             X           Y           Z
 ---------------------------------------------------------------------
      1         78           0       -0.022297   -0.116523   -0.274042
      2         17           0       -0.116402   -2.492258   -0.846554
      3         50           0        2.573845   -0.590989    0.004708
      4         50           0       -2.598437   -0.490340    0.124117
      5         17           0       -3.133661   -2.250689    1.690333
      6         17           0       -3.995818   -1.098724   -1.763116
      7         17           0       -4.000172    1.264589    1.120818
      8         17           0        3.043663   -2.449825    1.490674
      9         17           0        4.157951    0.976172    1.044924
     10         17           0        3.886845   -1.229035   -1.940487
     11         15           0       -0.029799    2.164542    0.029458
     12          6           0       -1.370878    2.993239   -0.940050
     13          1           0       -1.275158    4.075356   -0.756508
     14          6           0       -0.325398    2.709187    1.768875
     15          1           0       -0.281052    3.811036    1.781038
     16          1           0       -1.369786    2.431703    1.985314
     17          6           0        0.622416    2.101420    2.805282
     18          1           0        0.530299    1.005390    2.829288
     19          1           0        1.676302    2.343221    2.603139
     20          1           0        0.377568    2.482446    3.808535
     21          6           0        1.525763    2.980492   -0.557508
     22          1           0        2.347580    2.563593    0.042791
     23          1           0        1.681988    2.611273   -1.584942
     24          6           0        1.561884    4.513038   -0.516388
     25          1           0        1.440394    4.899721    0.507786
     26          1           0        2.537940    4.865546   -0.884062
     27          1           0        0.789255    4.973344   -1.151140
     28          1           0       -2.325533    2.687938   -0.486897
     29          6           0       -1.346323    2.682386   -2.436784
     30          1           0       -0.383187    2.951026   -2.901770
     31          1           0       -1.521509    1.610527   -2.625536
     32          1           0       -2.135005    3.252529   -2.957544
 ---------------------------------------------------------------------
 Rotational constants (GHZ):      0.1886217      0.0924032      0.0778593
 Leave Link  202 at Thu May 30 02:27:19 2019, MaxMem=  2013265920 cpu:         0.0
 (Enter /scr/programs/g09/l301.exe)
 General basis read from cards:  (5D, 7F)
 Centers:      13     15     16     18     19     20     22     23     25     26
 Centers:      27     28     30     31     32
 S 5 1.00
     Exponent=  2.8295215633D+02 Coefficients=  4.3000000000D-04
     Exponent=  8.7062201949D+01 Coefficients=  5.1000000000D-04
     Exponent=  2.6788369830D+01 Coefficients=  6.1600000000D-03
     Exponent=  8.2425753324D+00 Coefficients=  1.3030000000D-02
     Exponent=  2.5361770254D+00 Coefficients=  9.9490000000D-02
 S 1 1.00
     Exponent=  7.8036216165D-01 Coefficients=  1.0000000000D+00
 S 1 1.00
     Exponent=  2.4011143435D-01 Coefficients=  1.0000000000D+00
 P 1 1.00
     Exponent=  8.8150000000D-01 Coefficients=  1.0000000000D+00
 P 1 1.00
     Exponent=  1.7989200000D-01 Coefficients=  1.0000000000D+00
 ****
 Centers:      12     14     17     21     24     29
 S 6 1.00
     Exponent=  8.8461235339D+03 Coefficients=  5.3000000000D-04
     Exponent=  2.9487078446D+03 Coefficients=  7.7000000000D-04
     Exponent=  9.8290261488D+02 Coefficients=  4.0500000000D-03
     Exponent=  3.2763420496D+02 Coefficients=  1.4030000000D-02
     Exponent=  1.0921140165D+02 Coefficients=  5.3450000000D-02
     Exponent=  3.6403800551D+01 Coefficients=  1.7027000000D-01
 S 1 1.00
     Exponent=  1.2134600184D+01 Coefficients=  1.0000000000D+00
 S 1 1.00
     Exponent=  4.0448667279D+00 Coefficients=  1.0000000000D+00
 S 1 1.00
     Exponent=  1.3482889093D+00 Coefficients=  1.0000000000D+00
 S 1 1.00
     Exponent=  4.4942963643D-01 Coefficients=  1.0000000000D+00
 S 1 1.00
     Exponent=  1.4980987881D-01 Coefficients=  1.0000000000D+00
 P 4 1.00
     Exponent=  3.7294093393D+01 Coefficients=  3.9600000000D-03
     Exponent=  1.1475105659D+01 Coefficients=  1.8890000000D-02
     Exponent=  3.5308017414D+00 Coefficients=  9.4610000000D-02
     Exponent=  1.0864005358D+00 Coefficients=  3.1889000000D-01
 P 1 1.00
     Exponent=  3.3427708794D-01 Coefficients=  1.0000000000D+00
 P 1 1.00
     Exponent=  1.0285448860D-01 Coefficients=  1.0000000000D+00
 D 1 1.00
     Exponent=  4.7750000000D-01 Coefficients=  1.0000000000D+00
 D 1 1.00
     Exponent=  1.1998000000D-01 Coefficients=  1.0000000000D+00
 ****
 Centers:      11
 S 7 1.00
     Exponent=  5.9538004301D+04 Coefficients=  9.5000000000D-04
     Exponent=  2.1650183382D+04 Coefficients=  6.1000000000D-04
     Exponent=  7.8727939572D+03 Coefficients=  3.7500000000D-03
     Exponent=  2.8628341663D+03 Coefficients=  9.6300000000D-03
     Exponent=  1.0410306059D+03 Coefficients=  3.2430000000D-02
     Exponent=  3.7855658397D+02 Coefficients=  9.9500000000D-02
     Exponent=  1.3765693962D+02 Coefficients=  2.6570000000D-01
 S 1 1.00
     Exponent=  5.0057068954D+01 Coefficients=  1.0000000000D+00
 S 1 1.00
     Exponent=  1.8202570529D+01 Coefficients=  1.0000000000D+00
 S 1 1.00
     Exponent=  6.6191165560D+00 Coefficients=  1.0000000000D+00
 S 1 1.00
     Exponent=  2.4069514749D+00 Coefficients=  1.0000000000D+00
 S 1 1.00
     Exponent=  8.7525508178D-01 Coefficients=  1.0000000000D+00
 S 1 1.00
     Exponent=  3.1827457519D-01 Coefficients=  1.0000000000D+00
 S 1 1.00
     Exponent=  1.1573620916D-01 Coefficients=  1.0000000000D+00
 S 1 1.00
     Exponent=  4.2085894240D-02 Coefficients=  1.0000000000D+00
 P 5 1.00
     Exponent=  4.8799672315D+02 Coefficients=  2.1600000000D-03
     Exponent=  1.6266557438D+02 Coefficients=  9.7900000000D-03
     Exponent=  5.4221858128D+01 Coefficients=  5.4850000000D-02
     Exponent=  1.8073952709D+01 Coefficients=  2.1770000000D-01
     Exponent=  6.0246509031D+00 Coefficients=  4.8978000000D-01
 P 1 1.00
     Exponent=  2.0082169677D+00 Coefficients=  1.0000000000D+00
 P 1 1.00
     Exponent=  6.6940565590D-01 Coefficients=  1.0000000000D+00
 P 1 1.00
     Exponent=  2.2313521863D-01 Coefficients=  1.0000000000D+00
 P 1 1.00
     Exponent=  7.4378406211D-02 Coefficients=  1.0000000000D+00
 P 1 1.00
     Exponent=  2.4792802070D-02 Coefficients=  1.0000000000D+00
 D 1 1.00
     Exponent=  3.5395000000D-01 Coefficients=  1.0000000000D+00
 D 1 1.00
     Exponent=  8.9098000000D-02 Coefficients=  1.0000000000D+00
 ****
 Centers:       2      5      6      7      8      9     10
 S 7 1.00
     Exponent=  7.7142817164D+04 Coefficients=  1.0600000000D-03
     Exponent=  2.8051933514D+04 Coefficients=  6.4000000000D-04
     Exponent=  1.0200703096D+04 Coefficients=  3.9600000000D-03
     Exponent=  3.7093465804D+03 Coefficients=  9.8300000000D-03
     Exponent=  1.3488533020D+03 Coefficients=  3.2690000000D-02
     Exponent=  4.9049210981D+02 Coefficients=  9.9520000000D-02
     Exponent=  1.7836076720D+02 Coefficients=  2.6555000000D-01
 S 1 1.00
     Exponent=  6.4858460801D+01 Coefficients=  1.0000000000D+00
 S 1 1.00
     Exponent=  2.3584894837D+01 Coefficients=  1.0000000000D+00
 S 1 1.00
     Exponent=  8.5763253951D+00 Coefficients=  1.0000000000D+00
 S 1 1.00
     Exponent=  3.1186637801D+00 Coefficients=  1.0000000000D+00
 S 1 1.00
     Exponent=  1.1340595564D+00 Coefficients=  1.0000000000D+00
 S 1 1.00
     Exponent=  4.1238529323D-01 Coefficients=  1.0000000000D+00
 S 1 1.00
     Exponent=  1.4995828845D-01 Coefficients=  1.0000000000D+00
 S 1 1.00
     Exponent=  5.4530286708D-02 Coefficients=  1.0000000000D+00
 P 5 1.00
     Exponent=  6.9498536057D+02 Coefficients=  2.0000000000D-03
     Exponent=  2.3166178686D+02 Coefficients=  8.9500000000D-03
     Exponent=  7.7220595619D+01 Coefficients=  5.1130000000D-02
     Exponent=  2.5740198540D+01 Coefficients=  2.1011000000D-01
     Exponent=  8.5800661799D+00 Coefficients=  4.9738000000D-01
 P 1 1.00
     Exponent=  2.8600220600D+00 Coefficients=  1.0000000000D+00
 P 1 1.00
     Exponent=  9.5334068665D-01 Coefficients=  1.0000000000D+00
 P 1 1.00
     Exponent=  3.1778022888D-01 Coefficients=  1.0000000000D+00
 P 1 1.00
     Exponent=  1.0592674296D-01 Coefficients=  1.0000000000D+00
 P 1 1.00
     Exponent=  3.5308914320D-02 Coefficients=  1.0000000000D+00
 D 1 1.00
     Exponent=  5.5696000000D-01 Coefficients=  1.0000000000D+00
 D 1 1.00
     Exponent=  1.5619100000D-01 Coefficients=  1.0000000000D+00
 ****
 Centers:       3      4
 S 8 1.00
     Exponent=  7.5448214551D+05 Coefficients=  4.4300000000D-03
     Exponent=  3.3532539800D+05 Coefficients=  1.9800000000D-03
     Exponent=  1.4903351022D+05 Coefficients=  9.0500000000D-03
     Exponent=  6.6237115655D+04 Coefficients=  4.8700000000D-03
     Exponent=  2.9438718069D+04 Coefficients=  2.0770000000D-02
     Exponent=  1.3083874697D+04 Coefficients=  3.2900000000D-02
     Exponent=  5.8150554210D+03 Coefficients=  7.7010000000D-02
     Exponent=  2.5844690760D+03 Coefficients=  1.5160000000D-01
 S 1 1.00
     Exponent=  1.1486529227D+03 Coefficients=  1.0000000000D+00
 S 1 1.00
     Exponent=  5.1051241008D+02 Coefficients=  1.0000000000D+00
 S 1 1.00
     Exponent=  2.2689440448D+02 Coefficients=  1.0000000000D+00
 S 1 1.00
     Exponent=  1.0084195755D+02 Coefficients=  1.0000000000D+00
 S 1 1.00
     Exponent=  4.4818647798D+01 Coefficients=  1.0000000000D+00
 S 1 1.00
     Exponent=  1.9919399021D+01 Coefficients=  1.0000000000D+00
 S 1 1.00
     Exponent=  8.8530662317D+00 Coefficients=  1.0000000000D+00
 S 1 1.00
     Exponent=  3.9346961030D+00 Coefficients=  1.0000000000D+00
 S 1 1.00
     Exponent=  1.7487538235D+00 Coefficients=  1.0000000000D+00
 S 1 1.00
     Exponent=  7.7722392158D-01 Coefficients=  1.0000000000D+00
 S 1 1.00
     Exponent=  3.4543285403D-01 Coefficients=  1.0000000000D+00
 S 1 1.00
     Exponent=  1.5352571290D-01 Coefficients=  1.0000000000D+00
 S 1 1.00
     Exponent=  6.8233650180D-02 Coefficients=  1.0000000000D+00
 S 1 1.00
     Exponent=  1.3478251887D-02 Coefficients=  1.0000000000D+00
 P 5 1.00
     Exponent=  1.0090658304D+04 Coefficients=  2.7500000000D-03
     Exponent=  4.0362633217D+03 Coefficients=  4.1800000000D-03
     Exponent=  1.6145053287D+03 Coefficients=  2.0890000000D-02
     Exponent=  6.4580213147D+02 Coefficients=  7.1370000000D-02
     Exponent=  2.5832085259D+02 Coefficients=  2.2613000000D-01
 P 1 1.00
     Exponent=  1.0332834104D+02 Coefficients=  1.0000000000D+00
 P 1 1.00
     Exponent=  4.1331336414D+01 Coefficients=  1.0000000000D+00
 P 1 1.00
     Exponent=  1.6532534566D+01 Coefficients=  1.0000000000D+00
 P 1 1.00
     Exponent=  6.6130138263D+00 Coefficients=  1.0000000000D+00
 P 1 1.00
     Exponent=  2.6452055305D+00 Coefficients=  1.0000000000D+00
 P 1 1.00
     Exponent=  1.0580822122D+00 Coefficients=  1.0000000000D+00
 P 1 1.00
     Exponent=  4.2323288488D-01 Coefficients=  1.0000000000D+00
 P 1 1.00
     Exponent=  1.6929315395D-01 Coefficients=  1.0000000000D+00
 P 1 1.00
     Exponent=  6.7717261581D-02 Coefficients=  1.0000000000D+00
 P 1 1.00
     Exponent=  2.7086904632D-02 Coefficients=  1.0000000000D+00
 P 1 1.00
     Exponent=  1.0834761853D-02 Coefficients=  1.0000000000D+00
 D 4 1.00
     Exponent=  5.5430250651D+02 Coefficients=  4.3700000000D-03
     Exponent=  2.0156454782D+02 Coefficients=  2.5110000000D-02
     Exponent=  7.3296199207D+01 Coefficients=  1.3316000000D-01
     Exponent=  2.6653163348D+01 Coefficients=  3.8900000000D-01
 D 1 1.00
     Exponent=  9.6920593993D+00 Coefficients=  1.0000000000D+00
 D 1 1.00
     Exponent=  3.5243852361D+00 Coefficients=  1.0000000000D+00
 D 1 1.00
     Exponent=  1.2815946313D+00 Coefficients=  1.0000000000D+00
 D 1 1.00
     Exponent=  4.6603441139D-01 Coefficients=  1.0000000000D+00
 D 1 1.00
     Exponent=  1.6946705869D-01 Coefficients=  1.0000000000D+00
 F 1 1.00
     Exponent=  1.3140000000D+00 Coefficients=  1.0000000000D+00
 F 1 1.00
     Exponent=  1.9993000000D-01 Coefficients=  1.0000000000D+00
 ****
 Centers:       1
 S 9 1.00
     Exponent=  2.1644816090D+06 Coefficients=  1.2320000000D-02
     Exponent=  1.0822408045D+06 Coefficients=  1.2970000000D-02
     Exponent=  5.4112040224D+05 Coefficients=  2.6370000000D-02
     Exponent=  2.7056020112D+05 Coefficients=  9.0400000000D-03
     Exponent=  1.3528010056D+05 Coefficients=  3.4980000000D-02
     Exponent=  6.7640050280D+04 Coefficients=  1.2220000000D-02
     Exponent=  3.3820025140D+04 Coefficients=  6.0520000000D-02
     Exponent=  1.6910012570D+04 Coefficients=  6.4930000000D-02
     Exponent=  8.4550062850D+03 Coefficients=  1.3819000000D-01
 S 1 1.00
     Exponent=  4.2275031425D+03 Coefficients=  1.0000000000D+00
 S 1 1.00
     Exponent=  2.1137515713D+03 Coefficients=  1.0000000000D+00
 S 1 1.00
     Exponent=  1.0568757856D+03 Coefficients=  1.0000000000D+00
 S 1 1.00
     Exponent=  5.2843789281D+02 Coefficients=  1.0000000000D+00
 S 1 1.00
     Exponent=  2.6421894641D+02 Coefficients=  1.0000000000D+00
 S 1 1.00
     Exponent=  1.3210947320D+02 Coefficients=  1.0000000000D+00
 S 1 1.00
     Exponent=  6.6054736602D+01 Coefficients=  1.0000000000D+00
 S 1 1.00
     Exponent=  3.3027368301D+01 Coefficients=  1.0000000000D+00
 S 1 1.00
     Exponent=  1.6513684150D+01 Coefficients=  1.0000000000D+00
 S 1 1.00
     Exponent=  8.2568420752D+00 Coefficients=  1.0000000000D+00
 S 1 1.00
     Exponent=  4.1284210376D+00 Coefficients=  1.0000000000D+00
 S 1 1.00
     Exponent=  2.0642105188D+00 Coefficients=  1.0000000000D+00
 S 1 1.00
     Exponent=  1.0321052594D+00 Coefficients=  1.0000000000D+00
 S 1 1.00
     Exponent=  5.1605262970D-01 Coefficients=  1.0000000000D+00
 S 1 1.00
     Exponent=  2.5802631485D-01 Coefficients=  1.0000000000D+00
 S 1 1.00
     Exponent=  1.2901315743D-01 Coefficients=  1.0000000000D+00
 S 1 1.00
     Exponent=  6.4506578713D-02 Coefficients=  1.0000000000D+00
 P 7 1.00
     Exponent=  3.2357915258D+04 Coefficients=  5.0200000000D-03
     Exponent=  1.4381295670D+04 Coefficients=  2.0200000000D-03
     Exponent=  6.3916869645D+03 Coefficients=  1.8070000000D-02
     Exponent=  2.8407497620D+03 Coefficients=  3.6620000000D-02
     Exponent=  1.2625554498D+03 Coefficients=  1.1172000000D-01
     Exponent=  5.6113575545D+02 Coefficients=  2.5586000000D-01
     Exponent=  2.4939366909D+02 Coefficients=  4.2608000000D-01
 P 1 1.00
     Exponent=  1.1084163071D+02 Coefficients=  1.0000000000D+00
 P 1 1.00
     Exponent=  4.9262946981D+01 Coefficients=  1.0000000000D+00
 P 1 1.00
     Exponent=  2.1894643103D+01 Coefficients=  1.0000000000D+00
 P 1 1.00
     Exponent=  9.7309524900D+00 Coefficients=  1.0000000000D+00
 P 1 1.00
     Exponent=  4.3248677733D+00 Coefficients=  1.0000000000D+00
 P 1 1.00
     Exponent=  1.9221634548D+00 Coefficients=  1.0000000000D+00
 P 1 1.00
     Exponent=  8.5429486881D-01 Coefficients=  1.0000000000D+00
 P 1 1.00
     Exponent=  3.7968660836D-01 Coefficients=  1.0000000000D+00
 P 1 1.00
     Exponent=  1.6874960372D-01 Coefficients=  1.0000000000D+00
 P 1 1.00
     Exponent=  7.4999823874D-02 Coefficients=  1.0000000000D+00
 P 1 1.00
     Exponent=  3.3333255055D-02 Coefficients=  1.0000000000D+00
 D 5 1.00
     Exponent=  1.9119003508D+03 Coefficients=  4.3300000000D-03
     Exponent=  7.6476014031D+02 Coefficients=  1.7780000000D-02
     Exponent=  3.0590405613D+02 Coefficients=  8.9710000000D-02
     Exponent=  1.2236162245D+02 Coefficients=  3.1123000000D-01
     Exponent=  4.8944648980D+01 Coefficients=  5.3206000000D-01
 D 1 1.00
     Exponent=  1.9577859592D+01 Coefficients=  1.0000000000D+00
 D 1 1.00
     Exponent=  7.8311438368D+00 Coefficients=  1.0000000000D+00
 D 1 1.00
     Exponent=  3.1324575347D+00 Coefficients=  1.0000000000D+00
 D 1 1.00
     Exponent=  1.2529830139D+00 Coefficients=  1.0000000000D+00
 D 1 1.00
     Exponent=  5.0119320556D-01 Coefficients=  1.0000000000D+00
 D 1 1.00
     Exponent=  2.0047728222D-01 Coefficients=  1.0000000000D+00
 D 1 1.00
     Exponent=  8.0190912889D-02 Coefficients=  1.0000000000D+00
 D 1 1.00
     Exponent=  3.2076365156D-02 Coefficients=  1.0000000000D+00
 F 4 1.00
     Exponent=  8.2289680979D+01 Coefficients=  6.1870000000D-02
     Exponent=  2.9923520356D+01 Coefficients=  2.4823000000D-01
     Exponent=  1.0881280130D+01 Coefficients=  4.9956000000D-01
     Exponent=  3.9568291380D+00 Coefficients=  4.0380000000D-01
 F 1 1.00
     Exponent=  1.4388469593D+00 Coefficients=  1.0000000000D+00
 F 1 1.00
     Exponent=  5.2321707610D-01 Coefficients=  1.0000000000D+00
 G 1 1.00
     Exponent=  2.6700000000D+00 Coefficients=  1.0000000000D+00
 G 1 1.00
     Exponent=  9.0960000000D-01 Coefficients=  1.0000000000D+00
 ****
 Ernie: Thresh=  0.10000D-02 Tol=  0.10000D-05 Strict=F.
 There are   991 symmetry adapted cartesian basis functions of A   symmetry.
 There are   909 symmetry adapted basis functions of A   symmetry.
   909 basis functions,  1433 primitive gaussians,   991 cartesian basis functions
   182 alpha electrons      182 beta electrons
       nuclear repulsion energy      8199.6258360905 Hartrees.
 IExCor= 1009 DFT=T Ex=PBE Corr=PBE ExCW=0 ScaHFX=  0.000000
 ScaDFX=  1.000000  1.000000  1.000000  1.000000 ScalE2=  1.000000  1.000000
 IRadAn=      0 IRanWt=     -1 IRanGd=            0 ICorTp=0 IEmpDi=  4
 NAtoms=   32 NActive=   32 NUniq=   32 SFac= 1.00D+00 NAtFMM=   60 NAOKFM=F Big=F
 Integral buffers will be    131072 words long.
 Raffenetti 2 integral format.
 Two-electron integral symmetry is turned on.
 ------------------------------------------------------------------------------
 Polarizable Continuum Model (PCM)
 =================================
 Model                : PCM (using non-symmetric T matrix).
 Atomic radii         : UFF (Universal Force Field).
 Polarization charges : Total charges.
 Charge compensation  : None.
 Solution method      : On-the-fly selection.
 Cavity type          : Scaled VdW (van der Waals Surface) (Alpha=1.100).
 Cavity algorithm     : GePol (No added spheres)
                        Default sphere list used, NSphG=   32.
                        Lebedev-Laikov grids with approx.  5.0 points / Ang**2.
                        Smoothing algorithm: Karplus/York (Gamma=1.0000).
                        Polarization charges: spherical gaussians, with
                                              point-specific exponents (IZeta= 3).
                        Self-potential: point-specific (ISelfS= 7).
                        Self-field    : sphere-specific E.n sum rule (ISelfD= 2).
 Solvent              : Dichloromethane, Eps=   8.930000 Eps(inf)=   2.028346
 ------------------------------------------------------------------------------
 GePol: Number of generator spheres                  =      32
 GePol: Total number of spheres                      =      32
 GePol: Number of exposed spheres                    =      32 (100.00%)
 GePol: Number of points                             =    3097
 GePol: Average weight of points                     =       0.15
 GePol: Minimum weight of points                     =   0.22D-10
 GePol: Maximum weight of points                     =    0.21838
 GePol: Number of points with low weight             =     142
 GePol: Fraction of low-weight points (<1% of avg)   =       4.59%
 GePol: Cavity surface area                          =    474.584 Ang**2
 GePol: Cavity volume                                =    524.843 Ang**3
 Leave Link  301 at Thu May 30 02:27:20 2019, MaxMem=  2013265920 cpu:         1.6
 (Enter /scr/programs/g09/l302.exe)
 NPDir=0 NMtPBC=     1 NCelOv=     1 NCel=       1 NClECP=     1 NCelD=      1
         NCelK=      1 NCelE2=     1 NClLst=     1 CellRange=     0.0.
 One-electron integrals computed using PRISM.
 NBasis=   909 RedAO= T EigKep=  1.57D-05  NBF=   909
 NBsUse=   909 1.00D-06 EigRej= -1.00D+00 NBFU=   909
 Precomputing XC quadrature grid using
 IXCGrd= 4 IRadAn=           0 IRanWt=          -1 IRanGd=           0 AccXCQ= 0.00D+00.
 Defaulting to unpruned grid for atomic number  78.
 Generated NRdTot=       0 NPtTot=           0 NUsed=           0 NTot=          32
 NSgBfM=   874   877   878   879   881 MxSgAt=    32 MxSgA2=    32.
 Leave Link  302 at Thu May 30 02:27:22 2019, MaxMem=  2013265920 cpu:        22.3
 (Enter /scr/programs/g09/l308.exe)
 Leave Link  308 at Thu May 30 02:27:23 2019, MaxMem=  2013265920 cpu:         3.3
 (Enter /scr/programs/g09/l303.exe)
 DipDrv:  MaxL=1.
 Leave Link  303 at Thu May 30 02:27:23 2019, MaxMem=  2013265920 cpu:         2.0
 (Enter /scr/programs/g09/l401.exe)
 ExpMin= 1.08D-02 ExpMax= 2.16D+06 ExpMxC= 2.16D+06 IAcc=4 IRadAn=    199590 AccDes= 0.00D+00
 Harris functional with IExCor= 1009 and IRadAn=  199590 diagonalized for initial guess.
 HarFok:  IExCor= 1009 AccDes= 0.00D+00 IRadAn=    199590 IDoV= 1 UseB2=F ITyADJ=14
 ICtDFT=  3500011 ScaDFX=  1.000000  1.000000  1.000000  1.000000
 FoFCou: FMM=F IPFlag=           0 FMFlag=      100000 FMFlg1=           0
         NFxFlg=           0 DoJE=T BraDBF=F KetDBF=T FulRan=T
         wScrn=  0.000000 ICntrl=     500 IOpCl=  0 I1Cent=   200000004 NGrid=           0
         NMat0=    1 NMatS0=      1 NMatT0=    0 NMatD0=    1 NMtDS0=    0 NMtDT0=    0
 Petite list used in FoFCou.
 Harris En= -32884.4718977178    
 JPrj=0 DoOrth=F DoCkMO=F.
 Leave Link  401 at Thu May 30 02:28:23 2019, MaxMem=  2013265920 cpu:       474.2
 (Enter /scr/programs/g09/l502.exe)
 Closed shell SCF:
 Using DIIS extrapolation, IDIIS=  1040.
 Integral symmetry usage will be decided dynamically.
 IVT=     3968007 IEndB=     3968007 NGot=  2013265920 MDV=  2011282986
 LenX=  2011282986 LenY=  2010299914
 Requested convergence on RMS density matrix=1.00D-04 within1000 cycles.
 Requested convergence on MAX density matrix=1.00D-02.
 Requested convergence on             energy=1.00D-02.
 No special actions if energy rises.
 Fock matrices will be formed incrementally for  20 cycles.

 Cycle   1  Pass 1  IDiag  1:
 FoFJK:  IHMeth= 1 ICntrl=     500 DoSepK=F KAlg= 0 I1Cent=   0 FoldK=F
 IRaf= 710000000 NMat=   1 IRICut=       1 DoRegI=T DoRafI=F ISym2E= 0.
 FoFCou: FMM=F IPFlag=           0 FMFlag=      100000 FMFlg1=           0
         NFxFlg=           0 DoJE=T BraDBF=F KetDBF=F FulRan=T
         wScrn=  0.000000 ICntrl=     500 IOpCl=  0 I1Cent=           0 NGrid=           0
         NMat0=    1 NMatS0=      1 NMatT0=    0 NMatD0=    1 NMtDS0=    0 NMtDT0=    0
 Symmetry not used in FoFCou.
 Defaulting to unpruned grid for atomic number  78.
 Defaulting to unpruned grid for atomic number  78.
 Defaulting to unpruned grid for atomic number  78.
 Defaulting to unpruned grid for atomic number  78.
 Defaulting to unpruned grid for atomic number  78.
 Defaulting to unpruned grid for atomic number  78.
 Defaulting to unpruned grid for atomic number  78.
 Defaulting to unpruned grid for atomic number  78.
 Inv3:  Mode=1 IEnd=    28774227.
 Iteration    1 A*A^-1 deviation from unit magnitude is 8.22D-15 for   2036.
 Iteration    1 A*A^-1 deviation from orthogonality  is 6.44D-15 for   1191    216.
 Iteration    1 A^-1*A deviation from unit magnitude is 8.44D-15 for   2365.
 Iteration    1 A^-1*A deviation from orthogonality  is 6.55D-13 for   2865   1208.
 E= -32865.2555066245    
 DIIS: error= 2.89D-01 at cycle   1 NSaved=   1.
 NSaved= 1 IEnMin= 1 EnMin= -32865.2555066245     IErMin= 1 ErrMin= 2.89D-01
 ErrMax= 2.89D-01  0.00D+00 EMaxC= 1.00D-01 BMatC= 3.52D+02 BMatP= 3.52D+02
 IDIUse=3 WtCom= 0.00D+00 WtEn= 1.00D+00
 Coeff-Com:  0.100D+01
 Coeff-En:   0.100D+01
 Coeff:      0.100D+01
 Gap=     0.452 Goal=   None    Shift=    0.000
 GapD=    0.452 DampG=2.000 DampE=0.125 DampFc=0.2500 IDamp=-1.
 Damping current iteration by 2.50D-01
 RMSDP=5.40D-03 MaxDP=6.41D-01              OVMax= 6.89D-01

 Cycle   2  Pass 1  IDiag  1:
 RMSU=  1.34D-03    CP:  1.01D+00
 E= -32866.9188988866     Delta-E=       -1.663392262170 Rises=F Damp=T
 DIIS: error= 2.14D-01 at cycle   2 NSaved=   2.
 NSaved= 2 IEnMin= 2 EnMin= -32866.9188988866     IErMin= 2 ErrMin= 2.14D-01
 ErrMax= 2.14D-01  0.00D+00 EMaxC= 1.00D-01 BMatC= 1.71D+02 BMatP= 3.52D+02
 IDIUse=3 WtCom= 0.00D+00 WtEn= 1.00D+00
 Coeff-Com: -0.207D+01 0.307D+01
 Coeff-En:   0.000D+00 0.100D+01
 Coeff:      0.000D+00 0.100D+01
 Gap=     0.118 Goal=   None    Shift=    0.000
 RMSDP=1.72D-03 MaxDP=1.63D-01 DE=-1.66D+00 OVMax= 7.91D-01

 Cycle   3  Pass 1  IDiag  1:
 RMSU=  1.64D-03    CP:  1.03D+00  1.37D+00
 E= -32868.9080286668     Delta-E=       -1.989129780195 Rises=F Damp=F
 DIIS: error= 4.20D-02 at cycle   3 NSaved=   3.
 NSaved= 3 IEnMin= 3 EnMin= -32868.9080286668     IErMin= 3 ErrMin= 4.20D-02
 ErrMax= 4.20D-02  0.00D+00 EMaxC= 1.00D-01 BMatC= 9.87D+00 BMatP= 1.71D+02
 IDIUse=3 WtCom= 5.80D-01 WtEn= 4.20D-01
 Coeff-Com:  0.147D+01-0.188D+01 0.141D+01
 Coeff-En:   0.161D+00 0.000D+00 0.839D+00
 Coeff:      0.918D+00-0.109D+01 0.117D+01
 Gap=     0.107 Goal=   None    Shift=    0.000
 RMSDP=2.52D-03 MaxDP=4.07D-01 DE=-1.99D+00 OVMax= 3.04D-01

 Cycle   4  Pass 1  IDiag  1:
 RMSU=  2.25D-03    CP:  1.02D+00  1.53D+00  3.26D-01
 E= -32868.7327502462     Delta-E=        0.175278420589 Rises=F Damp=F
 DIIS: error= 2.46D-02 at cycle   4 NSaved=   4.
 NSaved= 4 IEnMin= 3 EnMin= -32868.9080286668     IErMin= 4 ErrMin= 2.46D-02
 ErrMax= 2.46D-02  0.00D+00 EMaxC= 1.00D-01 BMatC= 2.16D+00 BMatP= 9.87D+00
 IDIUse=3 WtCom= 7.54D-01 WtEn= 2.46D-01
 Coeff-Com:  0.489D+00-0.616D+00 0.633D+00 0.494D+00
 Coeff-En:   0.000D+00 0.000D+00 0.537D+00 0.463D+00
 Coeff:      0.369D+00-0.465D+00 0.610D+00 0.486D+00
 Gap=     0.217 Goal=   None    Shift=    0.000
 RMSDP=2.50D-03 MaxDP=4.60D-01 DE= 1.75D-01 OVMax= 2.62D-01

 Cycle   5  Pass 1  IDiag  1:
 RMSU=  5.87D-04    CP:  1.02D+00  8.77D-01  7.18D-01  3.29D-02
 E= -32869.7563696703     Delta-E=       -1.023619424057 Rises=F Damp=F
 DIIS: error= 8.74D-03 at cycle   5 NSaved=   5.
 NSaved= 5 IEnMin= 5 EnMin= -32869.7563696703     IErMin= 5 ErrMin= 8.74D-03
 ErrMax= 8.74D-03  0.00D+00 EMaxC= 1.00D-01 BMatC= 3.17D-01 BMatP= 2.16D+00
 IDIUse=3 WtCom= 9.13D-01 WtEn= 8.74D-02
 Coeff-Com:  0.410D-01-0.465D-01 0.159D+00 0.300D+00 0.547D+00
 Coeff-En:   0.000D+00 0.000D+00 0.000D+00 0.190D+00 0.810D+00
 Coeff:      0.374D-01-0.424D-01 0.145D+00 0.290D+00 0.570D+00
 Gap=     0.088 Goal=   None    Shift=    0.000
 RMSDP=7.86D-04 MaxDP=1.01D-01 DE=-1.02D+00 OVMax= 1.41D-01

 Cycle   6  Pass 1  IDiag  1:
 RMSU=  4.69D-04    CP:  1.02D+00  9.47D-01  6.81D-01  2.11D-01  1.92D-01
 E= -32869.9576030286     Delta-E=       -0.201233358312 Rises=F Damp=F
 DIIS: error= 4.17D-03 at cycle   6 NSaved=   6.
 NSaved= 6 IEnMin= 6 EnMin= -32869.9576030286     IErMin= 6 ErrMin= 4.17D-03
 ErrMax= 4.17D-03  0.00D+00 EMaxC= 1.00D-01 BMatC= 5.82D-02 BMatP= 3.17D-01
 IDIUse=3 WtCom= 9.58D-01 WtEn= 4.17D-02
 Coeff-Com: -0.975D-01 0.131D+00-0.155D-01 0.110D+00 0.340D+00 0.532D+00
 Coeff-En:   0.000D+00 0.000D+00 0.000D+00 0.000D+00 0.106D+00 0.894D+00
 Coeff:     -0.934D-01 0.126D+00-0.148D-01 0.105D+00 0.330D+00 0.547D+00
 Gap=     0.081 Goal=   None    Shift=    0.000
 RMSDP=3.62D-04 MaxDP=2.58D-02 DE=-2.01D-01 OVMax= 6.91D-02

 Cycle   7  Pass 1  IDiag  1:
 RMSU=  1.60D-04    CP:  1.02D+00  1.01D+00  7.03D-01  2.03D-01  4.68D-01
                    CP:  4.33D-01
 E= -32869.9939755814     Delta-E=       -0.036372552800 Rises=F Damp=F
 DIIS: error= 1.50D-03 at cycle   7 NSaved=   7.
 NSaved= 7 IEnMin= 7 EnMin= -32869.9939755814     IErMin= 7 ErrMin= 1.50D-03
 ErrMax= 1.50D-03  0.00D+00 EMaxC= 1.00D-01 BMatC= 7.30D-03 BMatP= 5.82D-02
 IDIUse=3 WtCom= 9.85D-01 WtEn= 1.50D-02
 Coeff-Com: -0.221D-01 0.295D-01-0.430D-02 0.374D-01 0.893D-01 0.281D+00
 Coeff-Com:  0.589D+00
 Coeff-En:   0.000D+00 0.000D+00 0.000D+00 0.000D+00 0.000D+00 0.174D+00
 Coeff-En:   0.826D+00
 Coeff:     -0.218D-01 0.291D-01-0.424D-02 0.368D-01 0.880D-01 0.280D+00
 Coeff:      0.592D+00
 Gap=     0.083 Goal=   None    Shift=    0.000
 RMSDP=1.24D-04 MaxDP=1.43D-02 DE=-3.64D-02 OVMax= 2.90D-02

 Cycle   8  Pass 1  IDiag  1:
 RMSU=  5.77D-05    CP:  1.02D+00  1.00D+00  6.89D-01  2.29D-01  4.04D-01
                    CP:  5.83D-01  7.29D-01
 E= -32869.9994037216     Delta-E=       -0.005428140226 Rises=F Damp=F
 DIIS: error= 3.98D-04 at cycle   8 NSaved=   8.
 NSaved= 8 IEnMin= 8 EnMin= -32869.9994037216     IErMin= 8 ErrMin= 3.98D-04
 ErrMax= 3.98D-04  0.00D+00 EMaxC= 1.00D-01 BMatC= 4.28D-04 BMatP= 7.30D-03
 IDIUse=3 WtCom= 9.96D-01 WtEn= 3.98D-03
 Coeff-Com: -0.203D-02 0.266D-02-0.692D-03 0.762D-02 0.900D-02 0.901D-01
 Coeff-Com:  0.337D+00 0.556D+00
 Coeff-En:   0.000D+00 0.000D+00 0.000D+00 0.000D+00 0.000D+00 0.000D+00
 Coeff-En:   0.320D-01 0.968D+00
 Coeff:     -0.202D-02 0.265D-02-0.689D-03 0.759D-02 0.896D-02 0.898D-01
 Coeff:      0.336D+00 0.558D+00
 Gap=     0.082 Goal=   None    Shift=    0.000
 RMSDP=4.01D-05 MaxDP=4.75D-03 DE=-5.43D-03 OVMax= 6.09D-03

 Error on total polarization charges =  0.03109
 SCF Done:  E(RPBE-PBE) =  -32869.9994037     A.U. after    8 cycles
            NFock=  8  Conv=0.40D-04     -V/T= 2.0154
 KE= 3.237197048871D+04 PE=-9.424373663669D+04 EE= 2.080214090817D+04
 Leave Link  502 at Thu May 30 02:40:14 2019, MaxMem=  2013265920 cpu:      5675.3
 (Enter /scr/programs/g09/l801.exe)
 Range of M.O.s used for correlation:     1   909
 NBasis=   909 NAE=   182 NBE=   182 NFC=     0 NFV=     0
 NROrb=    909 NOA=   182 NOB=   182 NVA=   727 NVB=   727

 **** Warning!!: The largest alpha MO coefficient is  0.31739896D+02


 **** Warning!!: The smallest alpha delta epsilon is  0.81627382D-01

 Leave Link  801 at Thu May 30 02:40:14 2019, MaxMem=  2013265920 cpu:         0.5
 (Enter /scr/programs/g09/l1002.exe)
 Minotr:  Closed shell wavefunction.
 NEqPCM:  Using equilibrium solvation (IEInf=0, Eps=   8.9300, EpsInf=   2.0283)
          Direct CPHF calculation.
          Differentiating once with respect to magnetic field using GIAOs.
          Electric field/nuclear overlap derivatives assumed to be zero.
          Requested convergence is 1.0D-08 RMS, and 1.0D-07 maximum.
          Secondary convergence is 1.0D-12 RMS, and 1.0D-12 maximum.
          NewPWx=T KeepS1=F KeepF1=F KeepIn=T MapXYZ=F SortEE=F KeepMc=T.
          MDV=    2013264751 using IRadAn=       2.
 Defaulting to unpruned grid for atomic number  78.
 Generate precomputed XC quadrature information.
          Solving linear equations simultaneously, MaxMat=       0.
 FoFJK:  IHMeth= 1 ICntrl=    6127 DoSepK=F KAlg= 0 I1Cent=   0 FoldK=F
 IRaf=         1 NMat=   1 IRICut=       1 DoRegI=T DoRafI=F ISym2E= 0.
 Defaulting to unpruned grid for atomic number  78.
 Defaulting to unpruned grid for atomic number  78.
 Defaulting to unpruned grid for atomic number  78.
 Defaulting to unpruned grid for atomic number  78.
 Defaulting to unpruned grid for atomic number  78.
 Defaulting to unpruned grid for atomic number  78.
 Defaulting to unpruned grid for atomic number  78.
 Defaulting to unpruned grid for atomic number  78.
          There are     3 degrees of freedom in the 1st order CPHF.  IDoFFX=0 NUNeed=     3.
      3 vectors produced by pass  0 Test12= 4.41D-12 3.33D-08 XBig12= 9.90D+01 2.24D+00.
 AX will form     3 AO Fock derivatives at one time.
 InvSVY:  IOpt=1 It=  1 EMax= 0.00D+00
 Solved reduced A of dimension     3 with     3 vectors.
 Calculating GIAO nuclear magnetic shielding tensors.
 SCF GIAO Magnetic shielding tensor (ppm):
      1  Pt   Isotropic =  3037.0226   Anisotropy =  2427.0558
   XX=  3124.4613   YX=   116.2241   ZX=  -178.7242
   XY=   131.8483   YY=  4560.3020   ZY=   358.3365
   XZ=  -100.5727   YZ=   708.1677   ZZ=  1426.3046
   Eigenvalues:  1324.1621  3131.8459  4655.0598
      2  Cl   Isotropic =  1070.4155   Anisotropy =  1005.0325
   XX=   641.6917   YX=   -16.8134   ZX=    26.5580
   XY=   -24.0652   YY=   860.1359   ZY=  -117.7350
   XZ=    47.0809   YZ=  -204.6719   ZZ=  1709.4190
   Eigenvalues:   639.2965   831.5130  1740.4372
      3  Sn   Isotropic =  2193.1172   Anisotropy =   680.2434
   XX=  2579.6275   YX=  -192.3753   ZX=    64.2444
   XY=  -192.6964   YY=  2049.4212   ZY=   -11.1010
   XZ=    46.4175   YZ=    -8.3882   ZZ=  1950.3030
   Eigenvalues:  1944.4246  1988.3144  2646.6128
      4  Sn   Isotropic =  2183.4835   Anisotropy =   666.4328
   XX=  2573.2329   YX=   169.0057   ZX=   -85.6102
   XY=   159.2295   YY=  2023.3945   ZY=   -20.5472
   XZ=   -67.0088   YZ=   -20.9326   ZZ=  1953.8230
   Eigenvalues:  1944.5421  1978.1364  2627.7720
      5  Cl   Isotropic =   761.6632   Anisotropy =   328.1935
   XX=   653.6353   YX=    70.5468   ZX=   -79.8628
   XY=    62.5174   YY=   820.6848   ZY=  -143.0122
   XZ=   -35.5939   YZ=  -139.0146   ZZ=   810.6696
   Eigenvalues:   629.5103   675.0204   980.4589
      6  Cl   Isotropic =   777.9816   Anisotropy =   331.9597
   XX=   769.4882   YX=    56.5478   ZX=   173.9059
   XY=    55.7871   YY=   701.1836   ZY=    48.3584
   XZ=   146.1351   YZ=    40.6473   ZZ=   863.2730
   Eigenvalues:   642.1931   692.4636   999.2880
      7  Cl   Isotropic =   755.6115   Anisotropy =   309.9337
   XX=   747.8336   YX=  -162.7746   ZX=   -80.4470
   XY=  -133.3753   YY=   780.6924   ZY=    72.6013
   XZ=   -71.3988   YZ=    72.4879   ZZ=   738.3085
   Eigenvalues:   614.5107   690.0898   962.2340
      8  Cl   Isotropic =   760.6080   Anisotropy =   323.3405
   XX=   647.1422   YX=   -66.7302   ZX=    75.4070
   XY=   -56.4038   YY=   837.3875   ZY=  -141.5913
   XZ=    26.1646   YZ=  -134.4689   ZZ=   797.2945
   Eigenvalues:   627.7271   677.9287   976.1684
      9  Cl   Isotropic =   738.4555   Anisotropy =   322.6537
   XX=   772.4602   YX=   147.5448   ZX=    97.0470
   XY=   130.8524   YY=   718.9873   ZY=    79.8034
   XZ=    84.7615   YZ=    86.8847   ZZ=   723.9189
   Eigenvalues:   603.3799   658.4286   953.5579
     10  Cl   Isotropic =   778.7801   Anisotropy =   333.7017
   XX=   764.9410   YX=   -48.1551   ZX=  -167.7707
   XY=   -53.4676   YY=   706.1248   ZY=    60.9022
   XZ=  -149.6077   YZ=    53.6934   ZZ=   865.2745
   Eigenvalues:   647.4479   687.6445  1001.2479
     11  P    Isotropic =   225.1944   Anisotropy =   122.5550
   XX=   173.4547   YX=    -1.0032   ZX=     9.9252
   XY=   -25.0578   YY=   298.1813   ZY=    39.0969
   XZ=    18.2743   YZ=    18.6216   ZZ=   203.9474
   Eigenvalues:   163.7847   204.9008   306.8978
     12  C    Isotropic =   154.3186   Anisotropy =    25.4096
   XX=   153.3959   YX=   -14.0130   ZX=     9.1227
   XY=   -10.9336   YY=   152.6660   ZY=    -1.3324
   XZ=     3.8996   YZ=   -11.3456   ZZ=   156.8941
   Eigenvalues:   140.5523   151.1453   171.2584
     13  H    Isotropic =    29.4842   Anisotropy =     9.6495
   XX=    27.4161   YX=    -1.8882   ZX=     1.4190
   XY=    -1.2402   YY=    35.5731   ZY=    -0.2425
   XZ=     1.5118   YZ=    -0.7344   ZZ=    25.4635
   Eigenvalues:    24.6696    27.8658    35.9172
     14  C    Isotropic =   155.1794   Anisotropy =    23.6851
   XX=   151.1683   YX=    -7.6549   ZX=     3.5116
   XY=   -10.1594   YY=   147.5899   ZY=     7.4253
   XZ=     4.9483   YZ=    12.3374   ZZ=   166.7799
   Eigenvalues:   136.7010   157.8677   170.9695
     15  H    Isotropic =    29.2817   Anisotropy =    10.1636
   XX=    24.8409   YX=    -1.2687   ZX=    -0.1335
   XY=    -0.4031   YY=    34.7403   ZY=     2.7999
   XZ=    -0.2817   YZ=     3.4220   ZZ=    28.2639
   Eigenvalues:    24.7697    27.0180    36.0574
     16  H    Isotropic =    29.3091   Anisotropy =     8.4264
   XX=    34.7251   YX=     1.8988   ZX=    -1.4744
   XY=     0.5698   YY=    25.0428   ZY=     2.9623
   XZ=    -0.3402   YZ=     3.1444   ZZ=    28.1594
   Eigenvalues:    22.9748    30.0259    34.9267
     17  C    Isotropic =   170.3071   Anisotropy =    17.1473
   XX=   164.5568   YX=    -6.6674   ZX=    10.5609
   XY=    -5.6556   YY=   170.2481   ZY=     0.8385
   XZ=     7.8181   YZ=     0.6280   ZZ=   176.1164
   Eigenvalues:   156.9528   172.2299   181.7386
     18  H    Isotropic =    30.3751   Anisotropy =     4.6120
   XX=    26.3011   YX=    -0.8293   ZX=     1.0168
   XY=     0.0271   YY=    32.3654   ZY=     1.4432
   XZ=     1.5666   YZ=     0.4956   ZZ=    32.4588
   Eigenvalues:    25.9866    31.6889    33.4498
     19  H    Isotropic =    30.1927   Anisotropy =     7.6237
   XX=    34.9302   YX=     0.6640   ZX=     0.8510
   XY=     0.2752   YY=    26.0351   ZY=     2.3201
   XZ=     1.4312   YZ=     2.6317   ZZ=    29.6127
   Eigenvalues:    24.7684    30.5345    35.2752
     20  H    Isotropic =    30.1150   Anisotropy =    13.3830
   XX=    26.0800   YX=    -0.7677   ZX=     0.9282
   XY=    -0.9886   YY=    26.3050   ZY=     3.4218
   XZ=    -0.0655   YZ=     3.9759   ZZ=    37.9600
   Eigenvalues:    24.6014    26.7066    39.0370
     21  C    Isotropic =   154.9653   Anisotropy =    50.8485
   XX=   150.7545   YX=    10.0274   ZX=    -7.9044
   XY=     7.7042   YY=   186.1957   ZY=    -4.7529
   XZ=    -6.5176   YZ=    -3.9080   ZZ=   127.9459
   Eigenvalues:   125.8070   150.2247   188.8643
     22  H    Isotropic =    27.9804   Anisotropy =    14.2585
   XX=    31.3059   YX=    -3.6945   ZX=     3.8814
   XY=    -3.8380   YY=    32.7764   ZY=    -4.0168
   XZ=     3.2991   YZ=    -3.8589   ZZ=    19.8589
   Eigenvalues:    18.2454    28.2098    37.4861
     23  H    Isotropic =    29.3291   Anisotropy =     4.2766
   XX=    27.9679   YX=     0.7619   ZX=    -3.2760
   XY=     1.0668   YY=    31.7070   ZY=     0.0452
   XZ=    -2.7353   YZ=    -0.1162   ZZ=    28.3124
   Eigenvalues:    25.0672    30.7400    32.1802
     24  C    Isotropic =   174.1847   Anisotropy =    23.1394
   XX=   169.0979   YX=     1.3674   ZX=    -1.2829
   XY=     2.6890   YY=   189.4072   ZY=    -0.6980
   XZ=    -0.6695   YZ=     0.3083   ZZ=   164.0492
   Eigenvalues:   163.8657   169.0775   189.6110
     25  H    Isotropic =    30.3576   Anisotropy =     9.7344
   XX=    26.0017   YX=     2.4617   ZX=    -0.6643
   XY=     2.0667   YY=    34.4373   ZY=     4.1947
   XZ=    -0.5429   YZ=     2.9773   ZZ=    30.6339
   Eigenvalues:    24.9654    29.2603    36.8472
     26  H    Isotropic =    30.1975   Anisotropy =    12.7946
   XX=    32.2743   YX=     4.5159   ZX=    -2.5553
   XY=     5.8480   YY=    33.0121   ZY=    -2.5853
   XZ=    -2.5566   YZ=    -2.0919   ZZ=    25.3063
   Eigenvalues:    24.3942    27.4711    38.7273
     27  H    Isotropic =    30.3640   Anisotropy =     9.9445
   XX=    29.5636   YX=     0.1241   ZX=     2.7809
   XY=    -1.0422   YY=    34.7766   ZY=    -4.5557
   XZ=     2.5876   YZ=    -4.1223   ZZ=    26.7517
   Eigenvalues:    23.9093    30.1890    36.9936
     28  H    Isotropic =    28.8646   Anisotropy =     9.8215
   XX=    32.5725   YX=     1.7135   ZX=    -3.3365
   XY=     0.4897   YY=    27.7580   ZY=    -3.0877
   XZ=    -4.6083   YZ=    -4.0208   ZZ=    26.2634
   Eigenvalues:    22.7026    28.4790    35.4123
     29  C    Isotropic =   172.8076   Anisotropy =    17.9061
   XX=   162.8863   YX=    -4.1326   ZX=     3.0759
   XY=    -2.3293   YY=   171.9760   ZY=     0.1836
   XZ=     6.9158   YZ=    -0.1567   ZZ=   183.5604
   Eigenvalues:   160.8477   172.8301   184.7450
     30  H    Isotropic =    30.4652   Anisotropy =     8.7767
   XX=    31.1012   YX=     1.3354   ZX=    -1.6580
   XY=     1.4258   YY=    26.8219   ZY=    -3.6194
   XZ=    -2.3280   YZ=    -4.0450   ZZ=    33.4726
   Eigenvalues:    25.0400    30.0393    36.3164
     31  H    Isotropic =    29.9771   Anisotropy =     6.3669
   XX=    25.4219   YX=     1.5306   ZX=     2.7170
   XY=     1.3732   YY=    33.3284   ZY=    -2.2342
   XZ=     2.6991   YZ=    -1.0619   ZZ=    31.1808
   Eigenvalues:    23.9356    31.7739    34.2217
     32  H    Isotropic =    30.0933   Anisotropy =    13.4316
   XX=    29.4869   YX=    -3.2238   ZX=     4.5681
   XY=    -3.3777   YY=    28.5506   ZY=    -4.1886
   XZ=     5.5040   YZ=    -4.8013   ZZ=    32.2425
   Eigenvalues:    25.5212    25.7111    39.0477
 End of Minotr F.D. properties file   721 does not exist.
 End of Minotr F.D. properties file   722 does not exist.
 End of Minotr F.D. properties file   788 does not exist.
 Leave Link 1002 at Thu May 30 03:17:35 2019, MaxMem=  2013265920 cpu:     17872.4
 (Enter /scr/programs/g09/l601.exe)
 Copying SCF densities to generalized density rwf, IOpCl= 0 IROHF=0.

 **********************************************************************

            Population analysis using the SCF density.

 **********************************************************************

 Orbital symmetries:
       Occupied  (A) (A) (A) (A) (A) (A) (A) (A) (A) (A) (A) (A)
                 (A) (A) (A) (A) (A) (A) (A) (A) (A) (A) (A) (A)
                 (A) (A) (A) (A) (A) (A) (A) (A) (A) (A) (A) (A)
                 (A) (A) (A) (A) (A) (A) (A) (A) (A) (A) (A) (A)
                 (A) (A) (A) (A) (A) (A) (A) (A) (A) (A) (A) (A)
                 (A) (A) (A) (A) (A) (A) (A) (A) (A) (A) (A) (A)
                 (A) (A) (A) (A) (A) (A) (A) (A) (A) (A) (A) (A)
                 (A) (A) (A) (A) (A) (A) (A) (A) (A) (A) (A) (A)
                 (A) (A) (A) (A) (A) (A) (A) (A) (A) (A) (A) (A)
                 (A) (A) (A) (A) (A) (A) (A) (A) (A) (A) (A) (A)
                 (A) (A) (A) (A) (A) (A) (A) (A) (A) (A) (A) (A)
                 (A) (A) (A) (A) (A) (A) (A) (A) (A) (A) (A) (A)
                 (A) (A) (A) (A) (A) (A) (A) (A) (A) (A) (A) (A)
                 (A) (A) (A) (A) (A) (A) (A) (A) (A) (A) (A) (A)
                 (A) (A) (A) (A) (A) (A) (A) (A) (A) (A) (A) (A)
                 (A) (A)
       Virtual   (A) (A) (A) (A) (A) (A) (A) (A) (A) (A) (A) (A)
                 (A) (A) (A) (A) (A) (A) (A) (A) (A) (A) (A) (A)
                 (A) (A) (A) (A) (A) (A) (A) (A) (A) (A) (A) (A)
                 (A) (A) (A) (A) (A) (A) (A) (A) (A) (A) (A) (A)
                 (A) (A) (A) (A) (A) (A) (A) (A) (A) (A) (A) (A)
                 (A) (A) (A) (A) (A) (A) (A) (A) (A) (A) (A) (A)
                 (A) (A) (A) (A) (A) (A) (A) (A) (A) (A) (A) (A)
                 (A) (A) (A) (A) (A) (A) (A) (A) (A) (A) (A) (A)
                 (A) (A) (A) (A) (A) (A) (A) (A) (A) (A) (A) (A)
                 (A) (A) (A) (A) (A) (A) (A) (A) (A) (A) (A) (A)
                 (A) (A) (A) (A) (A) (A) (A) (A) (A) (A) (A) (A)
                 (A) (A) (A) (A) (A) (A) (A) (A) (A) (A) (A) (A)
                 (A) (A) (A) (A) (A) (A) (A) (A) (A) (A) (A) (A)
                 (A) (A) (A) (A) (A) (A) (A) (A) (A) (A) (A) (A)
                 (A) (A) (A) (A) (A) (A) (A) (A) (A) (A) (A) (A)
                 (A) (A) (A) (A) (A) (A) (A) (A) (A) (A) (A) (A)
                 (A) (A) (A) (A) (A) (A) (A) (A) (A) (A) (A) (A)
                 (A) (A) (A) (A) (A) (A) (A) (A) (A) (A) (A) (A)
                 (A) (A) (A) (A) (A) (A) (A) (A) (A) (A) (A) (A)
                 (A) (A) (A) (A) (A) (A) (A) (A) (A) (A) (A) (A)
                 (A) (A) (A) (A) (A) (A) (A) (A) (A) (A) (A) (A)
                 (A) (A) (A) (A) (A) (A) (A) (A) (A) (A) (A) (A)
                 (A) (A) (A) (A) (A) (A) (A) (A) (A) (A) (A) (A)
                 (A) (A) (A) (A) (A) (A) (A) (A) (A) (A) (A) (A)
                 (A) (A) (A) (A) (A) (A) (A) (A) (A) (A) (A) (A)
                 (A) (A) (A) (A) (A) (A) (A) (A) (A) (A) (A) (A)
                 (A) (A) (A) (A) (A) (A) (A) (A) (A) (A) (A) (A)
                 (A) (A) (A) (A) (A) (A) (A) (A) (A) (A) (A) (A)
                 (A) (A) (A) (A) (A) (A) (A) (A) (A) (A) (A) (A)
                 (A) (A) (A) (A) (A) (A) (A) (A) (A) (A) (A) (A)
                 (A) (A) (A) (A) (A) (A) (A) (A) (A) (A) (A) (A)
                 (A) (A) (A) (A) (A) (A) (A) (A) (A) (A) (A) (A)
                 (A) (A) (A) (A) (A) (A) (A) (A) (A) (A) (A) (A)
                 (A) (A) (A) (A) (A) (A) (A) (A) (A) (A) (A) (A)
                 (A) (A) (A) (A) (A) (A) (A) (A) (A) (A) (A) (A)
                 (A) (A) (A) (A) (A) (A) (A) (A) (A) (A) (A) (A)
                 (A) (A) (A) (A) (A) (A) (A) (A) (A) (A) (A) (A)
                 (A) (A) (A) (A) (A) (A) (A) (A) (A) (A) (A) (A)
                 (A) (A) (A) (A) (A) (A) (A) (A) (A) (A) (A) (A)
                 (A) (A) (A) (A) (A) (A) (A) (A) (A) (A) (A) (A)
                 (A) (A) (A) (A) (A) (A) (A) (A) (A) (A) (A) (A)
                 (A) (A) (A) (A) (A) (A) (A) (A) (A) (A) (A) (A)
                 (A) (A) (A) (A) (A) (A) (A) (A) (A) (A) (A) (A)
                 (A) (A) (A) (A) (A) (A) (A) (A) (A) (A) (A) (A)
                 (A) (A) (A) (A) (A) (A) (A) (A) (A) (A) (A) (A)
                 (A) (A) (A) (A) (A) (A) (A) (A) (A) (A) (A) (A)
                 (A) (A) (A) (A) (A) (A) (A) (A) (A) (A) (A) (A)
                 (A) (A) (A) (A) (A) (A) (A) (A) (A) (A) (A) (A)
                 (A) (A) (A) (A) (A) (A) (A) (A) (A) (A) (A) (A)
                 (A) (A) (A) (A) (A) (A) (A) (A) (A) (A) (A) (A)
                 (A) (A) (A) (A) (A) (A) (A) (A) (A) (A) (A) (A)
                 (A) (A) (A) (A) (A) (A) (A) (A) (A) (A) (A) (A)
                 (A) (A) (A) (A) (A) (A) (A) (A) (A) (A) (A) (A)
                 (A) (A) (A) (A) (A) (A) (A) (A) (A) (A) (A) (A)
                 (A) (A) (A) (A) (A) (A) (A) (A) (A) (A) (A) (A)
                 (A) (A) (A) (A) (A) (A) (A) (A) (A) (A) (A) (A)
                 (A) (A) (A) (A) (A) (A) (A) (A) (A) (A) (A) (A)
                 (A) (A) (A) (A) (A) (A) (A) (A) (A) (A) (A) (A)
                 (A) (A) (A) (A) (A) (A) (A) (A) (A) (A) (A) (A)
                 (A) (A) (A) (A) (A) (A) (A) (A) (A) (A) (A) (A)
                 (A) (A) (A) (A) (A) (A) (A)
 The electronic state is 1-A.
 Alpha  occ. eigenvalues -- ******************************-427.53650-414.86697
 Alpha  occ. eigenvalues -- -414.86628-414.86381-149.65291-149.65032-141.93105
 Alpha  occ. eigenvalues -- -141.93094-141.93034-141.92846-141.92836-141.92774
 Alpha  occ. eigenvalues -- -100.55228-100.55215-100.55104-100.55036-100.54873
 Alpha  occ. eigenvalues -- -100.54863-100.52652 -99.91707 -92.07564 -92.07464
 Alpha  occ. eigenvalues --  -92.07064 -79.03449 -79.03333 -79.03108 -79.03065
 Alpha  occ. eigenvalues --  -79.02998 -76.30893 -28.81680 -28.81418 -25.16324
 Alpha  occ. eigenvalues --  -25.16284 -25.16091 -25.16060 -25.16024 -25.15827
 Alpha  occ. eigenvalues --  -20.83158 -17.71200 -17.71198 -17.71069 -17.71042
 Alpha  occ. eigenvalues --  -17.71010 -17.70938 -17.70937 -17.70805 -17.70781
 Alpha  occ. eigenvalues --  -17.70747 -17.40007 -17.39807 -17.38968 -11.58402
 Alpha  occ. eigenvalues --  -11.57988 -11.57514 -11.57448 -11.57295  -9.90643
 Alpha  occ. eigenvalues --   -9.90633  -9.90503  -9.88875  -9.88791  -9.88451
 Alpha  occ. eigenvalues --   -9.13096  -9.13079  -9.12966  -9.12906  -9.12738
 Alpha  occ. eigenvalues --   -9.12733  -9.10484  -6.96888  -6.96885  -6.96724
 Alpha  occ. eigenvalues --   -6.96691  -6.96534  -6.96494  -6.96284  -6.96271
 Alpha  occ. eigenvalues --   -6.96267  -6.96242  -6.96170  -6.96162  -6.96099
 Alpha  occ. eigenvalues --   -6.96085  -6.95933  -6.95932  -6.95929  -6.95903
 Alpha  occ. eigenvalues --   -6.94238  -6.93691  -6.93687  -6.33865  -4.56362
 Alpha  occ. eigenvalues --   -4.56347  -4.56219  -4.50399  -4.50128  -3.23841
 Alpha  occ. eigenvalues --   -3.23786  -3.23575  -3.23518  -3.23470  -3.23189
 Alpha  occ. eigenvalues --   -3.13269  -3.13233  -3.12760  -3.12468  -3.12297
 Alpha  occ. eigenvalues --   -3.12240  -3.12177  -2.86160  -1.81353  -1.80913
 Alpha  occ. eigenvalues --   -1.78491  -1.02880  -1.02846  -1.02599  -1.02573
 Alpha  occ. eigenvalues --   -1.02534  -1.02479  -1.02423  -1.02257  -1.02202
 Alpha  occ. eigenvalues --   -1.02132  -0.73604  -0.71852  -0.71606  -0.70278
 Alpha  occ. eigenvalues --   -0.70187  -0.70059  -0.69906  -0.69365  -0.69002
 Alpha  occ. eigenvalues --   -0.67899  -0.61058  -0.57199  -0.55330  -0.49045
 Alpha  occ. eigenvalues --   -0.43074  -0.42311  -0.41729  -0.41260  -0.40208
 Alpha  occ. eigenvalues --   -0.38110  -0.37603  -0.37040  -0.36490  -0.34714
 Alpha  occ. eigenvalues --   -0.33240  -0.33084  -0.32832  -0.32231  -0.32134
 Alpha  occ. eigenvalues --   -0.32012  -0.31826  -0.31759  -0.31135  -0.30624
 Alpha  occ. eigenvalues --   -0.30368  -0.29347  -0.28680  -0.27827  -0.27633
 Alpha  occ. eigenvalues --   -0.27118  -0.27100  -0.26964  -0.26872  -0.26799
 Alpha  occ. eigenvalues --   -0.26450  -0.25894  -0.25719  -0.25655  -0.25525
 Alpha  occ. eigenvalues --   -0.25411  -0.25173  -0.25038  -0.23240  -0.22277
 Alpha  occ. eigenvalues --   -0.21614  -0.19803
 Alpha virt. eigenvalues --   -0.11640  -0.06296  -0.03775  -0.03620  -0.02329
 Alpha virt. eigenvalues --   -0.02027  -0.01699  -0.01392   0.00034   0.00275
 Alpha virt. eigenvalues --    0.00526   0.01099   0.01513   0.01625   0.01778
 Alpha virt. eigenvalues --    0.01857   0.02980   0.03243   0.03728   0.04171
 Alpha virt. eigenvalues --    0.04423   0.04580   0.04933   0.05645   0.05675
 Alpha virt. eigenvalues --    0.06087   0.06119   0.06572   0.06629   0.06761
 Alpha virt. eigenvalues --    0.06914   0.07345   0.07374   0.07554   0.07753
 Alpha virt. eigenvalues --    0.07908   0.08102   0.08461   0.08462   0.08623
 Alpha virt. eigenvalues --    0.08875   0.09143   0.09377   0.09537   0.09834
 Alpha virt. eigenvalues --    0.10196   0.10326   0.10695   0.10865   0.11022
 Alpha virt. eigenvalues --    0.11466   0.11560   0.11815   0.12089   0.12214
 Alpha virt. eigenvalues --    0.12320   0.12594   0.12760   0.12976   0.13311
 Alpha virt. eigenvalues --    0.13738   0.14034   0.14584   0.14810   0.14953
 Alpha virt. eigenvalues --    0.15521   0.15929   0.16090   0.16555   0.17004
 Alpha virt. eigenvalues --    0.17356   0.17600   0.17954   0.18581   0.18725
 Alpha virt. eigenvalues --    0.18860   0.19277   0.19431   0.19734   0.20184
 Alpha virt. eigenvalues --    0.20282   0.20748   0.20894   0.21363   0.21631
 Alpha virt. eigenvalues --    0.21705   0.22117   0.22543   0.22847   0.23079
 Alpha virt. eigenvalues --    0.23519   0.24075   0.24509   0.24664   0.24868
 Alpha virt. eigenvalues --    0.25237   0.26016   0.26220   0.26281   0.27073
 Alpha virt. eigenvalues --    0.27395   0.27564   0.27858   0.28012   0.28406
 Alpha virt. eigenvalues --    0.28698   0.28897   0.28959   0.29558   0.29643
 Alpha virt. eigenvalues --    0.29778   0.30279   0.30643   0.30835   0.31180
 Alpha virt. eigenvalues --    0.31466   0.31555   0.31653   0.32249   0.32552
 Alpha virt. eigenvalues --    0.32730   0.33110   0.33257   0.33367   0.33713
 Alpha virt. eigenvalues --    0.34130   0.34183   0.34488   0.34850   0.35146
 Alpha virt. eigenvalues --    0.35284   0.35500   0.35904   0.36323   0.36417
 Alpha virt. eigenvalues --    0.36545   0.36821   0.37327   0.37507   0.38044
 Alpha virt. eigenvalues --    0.38706   0.39059   0.39539   0.39923   0.39998
 Alpha virt. eigenvalues --    0.40294   0.40786   0.41208   0.41453   0.41996
 Alpha virt. eigenvalues --    0.42357   0.42599   0.42781   0.43374   0.43556
 Alpha virt. eigenvalues --    0.43962   0.44462   0.44735   0.45022   0.45366
 Alpha virt. eigenvalues --    0.45622   0.46299   0.46894   0.47111   0.47416
 Alpha virt. eigenvalues --    0.47683   0.48035   0.48227   0.48602   0.48882
 Alpha virt. eigenvalues --    0.49555   0.49671   0.49747   0.50341   0.50663
 Alpha virt. eigenvalues --    0.51400   0.51555   0.51769   0.52162   0.52680
 Alpha virt. eigenvalues --    0.52925   0.53152   0.53626   0.53986   0.54345
 Alpha virt. eigenvalues --    0.54707   0.54896   0.55246   0.55660   0.56263
 Alpha virt. eigenvalues --    0.56481   0.56703   0.56946   0.57262   0.57602
 Alpha virt. eigenvalues --    0.57728   0.58865   0.59253   0.59612   0.59792
 Alpha virt. eigenvalues --    0.60138   0.60720   0.60798   0.61089   0.61289
 Alpha virt. eigenvalues --    0.61947   0.62070   0.62808   0.63474   0.63672
 Alpha virt. eigenvalues --    0.64079   0.64608   0.64703   0.64892   0.65242
 Alpha virt. eigenvalues --    0.65645   0.66200   0.66218   0.66382   0.66681
 Alpha virt. eigenvalues --    0.67438   0.67843   0.68207   0.68786   0.69639
 Alpha virt. eigenvalues --    0.70406   0.70518   0.70761   0.70874   0.71303
 Alpha virt. eigenvalues --    0.71710   0.71981   0.72244   0.72382   0.73195
 Alpha virt. eigenvalues --    0.73263   0.73663   0.74504   0.74655   0.75486
 Alpha virt. eigenvalues --    0.75746   0.76444   0.76583   0.77070   0.77183
 Alpha virt. eigenvalues --    0.77974   0.78317   0.78700   0.79131   0.79470
 Alpha virt. eigenvalues --    0.79531   0.79894   0.80229   0.80925   0.81499
 Alpha virt. eigenvalues --    0.81645   0.82867   0.83281   0.84512   0.84958
 Alpha virt. eigenvalues --    0.85435   0.85738   0.85910   0.87000   0.87137
 Alpha virt. eigenvalues --    0.88090   0.88652   0.89049   0.89329   0.89964
 Alpha virt. eigenvalues --    0.90105   0.90914   0.91476   0.91847   0.92081
 Alpha virt. eigenvalues --    0.93108   0.93565   0.94213   0.95061   0.95428
 Alpha virt. eigenvalues --    0.95762   0.96155   0.96570   0.97848   0.98191
 Alpha virt. eigenvalues --    0.98702   0.98943   0.99262   1.00159   1.00864
 Alpha virt. eigenvalues --    1.00922   1.01084   1.01592   1.02002   1.02266
 Alpha virt. eigenvalues --    1.02520   1.02727   1.03286   1.03783   1.04519
 Alpha virt. eigenvalues --    1.04874   1.05354   1.05535   1.05717   1.05882
 Alpha virt. eigenvalues --    1.06720   1.06915   1.07693   1.07833   1.08426
 Alpha virt. eigenvalues --    1.09196   1.09382   1.09921   1.10164   1.10700
 Alpha virt. eigenvalues --    1.10820   1.11268   1.11578   1.11891   1.12401
 Alpha virt. eigenvalues --    1.13386   1.14068   1.14457   1.14781   1.15022
 Alpha virt. eigenvalues --    1.15810   1.16326   1.17480   1.17650   1.18153
 Alpha virt. eigenvalues --    1.18809   1.19506   1.19624   1.20775   1.21160
 Alpha virt. eigenvalues --    1.22510   1.22872   1.23359   1.24329   1.24509
 Alpha virt. eigenvalues --    1.26098   1.26680   1.28010   1.28532   1.29159
 Alpha virt. eigenvalues --    1.29921   1.31928   1.32225   1.32618   1.32842
 Alpha virt. eigenvalues --    1.33919   1.35095   1.35159   1.35461   1.36630
 Alpha virt. eigenvalues --    1.37137   1.38428   1.39368   1.40124   1.40320
 Alpha virt. eigenvalues --    1.41433   1.42905   1.43571   1.44479   1.45309
 Alpha virt. eigenvalues --    1.46154   1.46562   1.47732   1.47859   1.48736
 Alpha virt. eigenvalues --    1.49898   1.50963   1.51816   1.52870   1.54543
 Alpha virt. eigenvalues --    1.55258   1.55648   1.56457   1.57854   1.59116
 Alpha virt. eigenvalues --    1.60917   1.62090   1.63159   1.64828   1.66120
 Alpha virt. eigenvalues --    1.68587   1.70746   1.72240   1.73011   1.73560
 Alpha virt. eigenvalues --    1.74584   1.76564   1.77003   1.78764   1.79113
 Alpha virt. eigenvalues --    1.79990   1.81279   1.82183   1.82340   1.83092
 Alpha virt. eigenvalues --    1.83941   1.84458   1.84878   1.85545   1.86749
 Alpha virt. eigenvalues --    1.87102   1.88988   1.89149   1.90264   1.90428
 Alpha virt. eigenvalues --    1.91426   1.91867   1.92071   1.92406   1.92858
 Alpha virt. eigenvalues --    1.93425   1.93843   1.94308   1.94705   1.95290
 Alpha virt. eigenvalues --    1.96244   1.97409   1.98190   1.98400   1.99325
 Alpha virt. eigenvalues --    2.00230   2.01263   2.02189   2.02999   2.03613
 Alpha virt. eigenvalues --    2.05431   2.06010   2.06817   2.07284   2.09054
 Alpha virt. eigenvalues --    2.11252   2.12015   2.12942   2.13640   2.14217
 Alpha virt. eigenvalues --    2.14598   2.15346   2.15839   2.16882   2.17139
 Alpha virt. eigenvalues --    2.17926   2.18104   2.18608   2.20293   2.21156
 Alpha virt. eigenvalues --    2.22483   2.23686   2.23823   2.25002   2.25823
 Alpha virt. eigenvalues --    2.27203   2.27447   2.28322   2.28665   2.29189
 Alpha virt. eigenvalues --    2.29630   2.30720   2.31387   2.33065   2.33251
 Alpha virt. eigenvalues --    2.34341   2.35330   2.35828   2.37305   2.37977
 Alpha virt. eigenvalues --    2.38683   2.39705   2.39839   2.41530   2.41642
 Alpha virt. eigenvalues --    2.42776   2.44001   2.45791   2.46290   2.47380
 Alpha virt. eigenvalues --    2.48225   2.48393   2.50258   2.51851   2.54132
 Alpha virt. eigenvalues --    2.55725   2.60012   2.61531   2.62681   2.64061
 Alpha virt. eigenvalues --    2.65402   2.67292   2.67570   2.70163   2.73677
 Alpha virt. eigenvalues --    2.76584   2.77239   2.78684   2.79407   2.80739
 Alpha virt. eigenvalues --    2.83526   2.85815   2.88861   2.92644   2.93661
 Alpha virt. eigenvalues --    2.95537   2.99839   3.02606   3.05526   3.08059
 Alpha virt. eigenvalues --    3.09972   3.11174   3.12032   3.14209   3.14654
 Alpha virt. eigenvalues --    3.17077   3.18200   3.18978   3.19093   3.19783
 Alpha virt. eigenvalues --    3.20515   3.22794   3.24803   3.25895   3.26139
 Alpha virt. eigenvalues --    3.27155   3.27938   3.30166   3.31731   3.32603
 Alpha virt. eigenvalues --    3.34558   3.36716   3.40357   3.47415   3.47714
 Alpha virt. eigenvalues --    3.49398   3.50954   3.55147   3.58598   3.59109
 Alpha virt. eigenvalues --    3.75587   3.89426   3.92018   3.93649   3.95988
 Alpha virt. eigenvalues --    4.06142   4.16957   4.18494   4.22037   4.23350
 Alpha virt. eigenvalues --    4.25337   4.29988   4.30725   4.38167   4.41244
 Alpha virt. eigenvalues --    4.43332   5.42369   5.42996   5.46528   5.46985
 Alpha virt. eigenvalues --    5.54182   5.58298   5.68286   5.82017   5.94307
 Alpha virt. eigenvalues --    6.66769   6.67786   6.68960   6.69820   6.70606
 Alpha virt. eigenvalues --    6.72460   6.72768   6.74059   6.74477   6.75036
 Alpha virt. eigenvalues --    6.80061   6.80378   6.82642   6.83948   6.84420
 Alpha virt. eigenvalues --    6.88152   6.90127   6.93258   6.93991   6.94895
 Alpha virt. eigenvalues --    6.96740   6.98508   7.00724   7.03190   7.06058
 Alpha virt. eigenvalues --    7.64275   7.66556   7.69387   8.48589   8.48938
 Alpha virt. eigenvalues --    8.49296   8.49772   8.50361   8.51225   8.53129
 Alpha virt. eigenvalues --    8.55334   8.58716   8.80220   9.80924   9.82134
 Alpha virt. eigenvalues --    9.82344   9.83380   9.83647   9.83987   9.84271
 Alpha virt. eigenvalues --    9.84594   9.84932   9.85544   9.87029   9.87637
 Alpha virt. eigenvalues --    9.90023   9.90203   9.90702   9.92922   9.93820
 Alpha virt. eigenvalues --    9.96226   9.98477   9.99193  10.00793  10.02234
 Alpha virt. eigenvalues --   10.03461  10.04006  10.06451  10.13154  13.98562
 Alpha virt. eigenvalues --   15.52233  15.53702  16.68165  16.69913  16.71365
 Alpha virt. eigenvalues --   16.72154  16.77539  16.79153  16.92928  17.03111
 Alpha virt. eigenvalues --   17.05678  17.07175  17.13059  17.17906  17.20121
 Alpha virt. eigenvalues --   20.93435  21.07330  21.18135  25.42945  25.43422
 Alpha virt. eigenvalues --   25.46363  25.46852  25.52109  25.55107  25.95361
 Alpha virt. eigenvalues --   31.64061  31.64753  31.67155  31.67562  31.71545
 Alpha virt. eigenvalues --   31.71835  31.73514  31.74196  31.74369  31.76852
 Alpha virt. eigenvalues --   42.91919  42.93414  42.95324  42.97859  43.07471
 Alpha virt. eigenvalues --   61.71116  62.89867  62.91302  78.01286  78.02789
 Alpha virt. eigenvalues --   78.04029  78.04700  78.09989  78.11108  78.23068
 Alpha virt. eigenvalues --   81.99673  86.07555  86.19276  86.28203  89.28324
 Alpha virt. eigenvalues --   89.31496  89.33028  89.38059  89.43471  89.45712
 Alpha virt. eigenvalues --  121.79554 121.79834 121.82126 121.82244 121.86040
 Alpha virt. eigenvalues --  121.88586 239.08958 239.10237 257.12345 332.03393
 Alpha virt. eigenvalues --  428.69481 428.78820 428.85429 431.62676 431.64247
 Alpha virt. eigenvalues --  431.65548 431.66253 431.71972 431.73117 431.85428
 Alpha virt. eigenvalues --  590.17730 590.17891 590.19686 590.19789 590.22688
 Alpha virt. eigenvalues --  590.24654 772.81613 839.49962 839.510982068.43030
 Alpha virt. eigenvalues -- 2529.884752529.894825495.24308********************
 Alpha virt. eigenvalues -- ********************
          Condensed to atoms (all electrons):
               1          2          3          4          5          6
     1  Pt  78.055708   0.071387   0.193723   0.221455  -0.001410   0.006406
     2  Cl   0.071387  17.394131   0.014665   0.009628  -0.000856   0.006743
     3  Sn   0.193723   0.014665  48.818654  -0.040703   0.001885   0.002172
     4  Sn   0.221455   0.009628  -0.040703  48.787222   0.221085   0.203259
     5  Cl  -0.001410  -0.000856   0.001885   0.221085  16.986193   0.004210
     6  Cl   0.006406   0.006743   0.002172   0.203259   0.004210  17.002481
     7  Cl  -0.009473   0.001595   0.001529   0.170118   0.007295   0.010259
     8  Cl   0.004094  -0.003120   0.215408   0.001757   0.000541  -0.000026
     9  Cl   0.004183   0.000844   0.198746   0.001501  -0.000029  -0.000022
    10  Cl   0.007280   0.003487   0.195812   0.000060   0.000000  -0.000058
    11  P   -0.807788   0.009213   0.091679   0.120372   0.000768  -0.004888
    12  C   -0.003043  -0.001034  -0.006070  -0.000801  -0.000153  -0.000136
    13  H   -0.008266  -0.000045   0.000767  -0.004312  -0.000010   0.000019
    14  C    0.055014  -0.001652  -0.005622  -0.017064  -0.000418   0.000523
    15  H   -0.007086   0.000012   0.000828  -0.001683  -0.000004  -0.000003
    16  H    0.003669   0.000207   0.000514  -0.003358  -0.000229  -0.000072
    17  C   -0.022960  -0.000588   0.002458  -0.004648  -0.000258   0.000033
    18  H    0.009717   0.000623   0.003058  -0.001046  -0.000012  -0.000016
    19  H   -0.001109   0.000059  -0.003917  -0.000782   0.000022   0.000008
    20  H    0.009197   0.000097   0.001713   0.002464  -0.000005   0.000002
    21  C    0.024932  -0.001525  -0.028011  -0.002484  -0.000050   0.000210
    22  H   -0.007325   0.000103   0.001987   0.001792   0.000001   0.000003
    23  H    0.003897   0.000401   0.004225   0.001050   0.000000  -0.000019
    24  C    0.006217   0.000089   0.000955   0.000677   0.000005   0.000028
    25  H   -0.002884   0.000000  -0.002509   0.000712   0.000000   0.000000
    26  H   -0.004698  -0.000012   0.002348  -0.000386   0.000000   0.000000
    27  H   -0.002929  -0.000003  -0.001892   0.000300   0.000001  -0.000001
    28  H    0.001281   0.000414   0.001171   0.004518   0.000187  -0.000802
    29  C    0.014031  -0.000615   0.003969  -0.021875   0.000035   0.000370
    30  H    0.012750   0.000522   0.001706  -0.002130   0.000014   0.000102
    31  H    0.022477  -0.000248   0.000278  -0.004456   0.000029   0.001311
    32  H   -0.001607   0.000042  -0.001403   0.007756  -0.000012  -0.000504
               7          8          9         10         11         12
     1  Pt  -0.009473   0.004094   0.004183   0.007280  -0.807788  -0.003043
     2  Cl   0.001595  -0.003120   0.000844   0.003487   0.009213  -0.001034
     3  Sn   0.001529   0.215408   0.198746   0.195812   0.091679  -0.006070
     4  Sn   0.170118   0.001757   0.001501   0.000060   0.120372  -0.000801
     5  Cl   0.007295   0.000541  -0.000029   0.000000   0.000768  -0.000153
     6  Cl   0.010259  -0.000026  -0.000022  -0.000058  -0.004888  -0.000136
     7  Cl  17.062478  -0.000026  -0.000134  -0.000043   0.005475  -0.027681
     8  Cl  -0.000026  17.005784   0.005235   0.003582  -0.003151  -0.000043
     9  Cl  -0.000134   0.005235  17.061505   0.007331  -0.017072   0.000524
    10  Cl  -0.000043   0.003582   0.007331  17.030874   0.000165   0.000418
    11  P    0.005475  -0.003151  -0.017072   0.000165  15.390889  -0.012783
    12  C   -0.027681  -0.000043   0.000524   0.000418  -0.012783   5.048106
    13  H   -0.000969  -0.000001   0.000047  -0.000002   0.029038   0.385699
    14  C   -0.008144  -0.000021  -0.001260   0.000175  -0.091785   0.073138
    15  H   -0.000861  -0.000009  -0.000216   0.000006   0.037369   0.000466
    16  H    0.012003   0.000031   0.000121   0.000016   0.064082  -0.007475
    17  C    0.000903  -0.000415  -0.000581  -0.000175   0.037846   0.000978
    18  H   -0.000380  -0.000829  -0.001539   0.000062   0.037828  -0.000027
    19  H    0.000118  -0.000156   0.008319   0.000053   0.026480   0.000107
    20  H   -0.000367  -0.000005  -0.000491   0.000003  -0.012095  -0.000096
    21  C    0.000815   0.000473  -0.031424   0.000705  -0.159539   0.092247
    22  H   -0.000007  -0.000014   0.025661  -0.000850   0.044045   0.000574
    23  H    0.000055   0.000083  -0.001345  -0.000423   0.046799  -0.004299
    24  C   -0.000395  -0.000004   0.002810  -0.000359  -0.009233   0.009836
    25  H    0.000018   0.000001  -0.000952   0.000012   0.023989  -0.003849
    26  H    0.000023  -0.000005   0.000219  -0.000081   0.002634  -0.000374
    27  H   -0.000069   0.000002   0.000061   0.000008   0.014841   0.002595
    28  H    0.021795  -0.000003  -0.000009   0.000003   0.032122   0.380190
    29  C    0.003612   0.000002  -0.000110  -0.000320   0.004618   0.356498
    30  H    0.000229   0.000010  -0.000036   0.000103   0.005386   0.034217
    31  H   -0.000605  -0.000012   0.000013   0.000069   0.030275   0.029404
    32  H   -0.000829   0.000000   0.000009   0.000007  -0.002946   0.036930
              13         14         15         16         17         18
     1  Pt  -0.008266   0.055014  -0.007086   0.003669  -0.022960   0.009717
     2  Cl  -0.000045  -0.001652   0.000012   0.000207  -0.000588   0.000623
     3  Sn   0.000767  -0.005622   0.000828   0.000514   0.002458   0.003058
     4  Sn  -0.004312  -0.017064  -0.001683  -0.003358  -0.004648  -0.001046
     5  Cl  -0.000010  -0.000418  -0.000004  -0.000229  -0.000258  -0.000012
     6  Cl   0.000019   0.000523  -0.000003  -0.000072   0.000033  -0.000016
     7  Cl  -0.000969  -0.008144  -0.000861   0.012003   0.000903  -0.000380
     8  Cl  -0.000001  -0.000021  -0.000009   0.000031  -0.000415  -0.000829
     9  Cl   0.000047  -0.001260  -0.000216   0.000121  -0.000581  -0.001539
    10  Cl  -0.000002   0.000175   0.000006   0.000016  -0.000175   0.000062
    11  P    0.029038  -0.091785   0.037369   0.064082   0.037846   0.037828
    12  C    0.385699   0.073138   0.000466  -0.007475   0.000978  -0.000027
    13  H    0.455400   0.005424   0.002694  -0.000917  -0.000073   0.000003
    14  C    0.005424   5.089858   0.381493   0.352128   0.333156   0.022861
    15  H    0.002694   0.381493   0.456370   0.008859   0.016795  -0.000477
    16  H   -0.000917   0.352128   0.008859   0.454980   0.020431  -0.001505
    17  C   -0.000073   0.333156   0.016795   0.020431   4.665060   0.340346
    18  H    0.000003   0.022861  -0.000477  -0.001505   0.340346   0.488040
    19  H   -0.000003   0.031542  -0.001073  -0.000497   0.348569   0.016941
    20  H   -0.000003   0.039604  -0.001494  -0.001599   0.362382   0.012029
    21  C   -0.008212   0.109812  -0.005007   0.001586   0.016911  -0.002744
    22  H    0.000018  -0.004865  -0.000298  -0.000039  -0.001816   0.000092
    23  H   -0.000402   0.000230   0.000014   0.000005   0.000014  -0.000002
    24  C    0.002326   0.013244   0.000848  -0.000057  -0.001630  -0.000003
    25  H    0.000311   0.003019   0.001189   0.000036   0.001823   0.000000
    26  H    0.000002  -0.000090   0.000016   0.000000   0.000021   0.000000
    27  H    0.001976  -0.002569   0.000131   0.000008   0.000080   0.000000
    28  H    0.008201  -0.006238  -0.000787   0.003206  -0.000056   0.000003
    29  C    0.022491   0.001685  -0.000064   0.000019  -0.000036  -0.000006
    30  H   -0.001090   0.000030  -0.000004   0.000000   0.000004   0.000000
    31  H   -0.000394   0.000039   0.000002   0.000001  -0.000004   0.000000
    32  H   -0.001777  -0.000034  -0.000003  -0.000003   0.000000   0.000000
              19         20         21         22         23         24
     1  Pt  -0.001109   0.009197   0.024932  -0.007325   0.003897   0.006217
     2  Cl   0.000059   0.000097  -0.001525   0.000103   0.000401   0.000089
     3  Sn  -0.003917   0.001713  -0.028011   0.001987   0.004225   0.000955
     4  Sn  -0.000782   0.002464  -0.002484   0.001792   0.001050   0.000677
     5  Cl   0.000022  -0.000005  -0.000050   0.000001   0.000000   0.000005
     6  Cl   0.000008   0.000002   0.000210   0.000003  -0.000019   0.000028
     7  Cl   0.000118  -0.000367   0.000815  -0.000007   0.000055  -0.000395
     8  Cl  -0.000156  -0.000005   0.000473  -0.000014   0.000083  -0.000004
     9  Cl   0.008319  -0.000491  -0.031424   0.025661  -0.001345   0.002810
    10  Cl   0.000053   0.000003   0.000705  -0.000850  -0.000423  -0.000359
    11  P    0.026480  -0.012095  -0.159539   0.044045   0.046799  -0.009233
    12  C    0.000107  -0.000096   0.092247   0.000574  -0.004299   0.009836
    13  H   -0.000003  -0.000003  -0.008212   0.000018  -0.000402   0.002326
    14  C    0.031542   0.039604   0.109812  -0.004865   0.000230   0.013244
    15  H   -0.001073  -0.001494  -0.005007  -0.000298   0.000014   0.000848
    16  H   -0.000497  -0.001599   0.001586  -0.000039   0.000005  -0.000057
    17  C    0.348569   0.362382   0.016911  -0.001816   0.000014  -0.001630
    18  H    0.016941   0.012029  -0.002744   0.000092  -0.000002  -0.000003
    19  H    0.467327   0.010964  -0.002940   0.000875   0.000032   0.002737
    20  H    0.010964   0.442174   0.000014   0.000014   0.000000  -0.000085
    21  C   -0.002940   0.000014   5.169610   0.386435   0.349752   0.312220
    22  H    0.000875   0.000014   0.386435   0.449636   0.010412   0.020853
    23  H    0.000032   0.000000   0.349752   0.010412   0.470099   0.021290
    24  C    0.002737  -0.000085   0.312220   0.020853   0.021290   4.753099
    25  H   -0.000029   0.000005   0.026041  -0.000766  -0.000384   0.356130
    26  H    0.000001   0.000000   0.033963  -0.001749  -0.001828   0.369133
    27  H   -0.000002   0.000000   0.030836  -0.000646  -0.000767   0.356536
    28  H    0.000000  -0.000003   0.001246   0.000004  -0.000051  -0.000324
    29  C    0.000001   0.000000   0.022391  -0.000294  -0.001559  -0.005534
    30  H    0.000000   0.000000  -0.000621   0.000038   0.002029   0.003365
    31  H    0.000000   0.000000  -0.003870  -0.000001   0.000144   0.000146
    32  H    0.000000   0.000000  -0.000087   0.000000   0.000010  -0.000040
              25         26         27         28         29         30
     1  Pt  -0.002884  -0.004698  -0.002929   0.001281   0.014031   0.012750
     2  Cl   0.000000  -0.000012  -0.000003   0.000414  -0.000615   0.000522
     3  Sn  -0.002509   0.002348  -0.001892   0.001171   0.003969   0.001706
     4  Sn   0.000712  -0.000386   0.000300   0.004518  -0.021875  -0.002130
     5  Cl   0.000000   0.000000   0.000001   0.000187   0.000035   0.000014
     6  Cl   0.000000   0.000000  -0.000001  -0.000802   0.000370   0.000102
     7  Cl   0.000018   0.000023  -0.000069   0.021795   0.003612   0.000229
     8  Cl   0.000001  -0.000005   0.000002  -0.000003   0.000002   0.000010
     9  Cl  -0.000952   0.000219   0.000061  -0.000009  -0.000110  -0.000036
    10  Cl   0.000012  -0.000081   0.000008   0.000003  -0.000320   0.000103
    11  P    0.023989   0.002634   0.014841   0.032122   0.004618   0.005386
    12  C   -0.003849  -0.000374   0.002595   0.380190   0.356498   0.034217
    13  H    0.000311   0.000002   0.001976   0.008201   0.022491  -0.001090
    14  C    0.003019  -0.000090  -0.002569  -0.006238   0.001685   0.000030
    15  H    0.001189   0.000016   0.000131  -0.000787  -0.000064  -0.000004
    16  H    0.000036   0.000000   0.000008   0.003206   0.000019   0.000000
    17  C    0.001823   0.000021   0.000080  -0.000056  -0.000036   0.000004
    18  H    0.000000   0.000000   0.000000   0.000003  -0.000006   0.000000
    19  H   -0.000029   0.000001  -0.000002   0.000000   0.000001   0.000000
    20  H    0.000005   0.000000   0.000000  -0.000003   0.000000   0.000000
    21  C    0.026041   0.033963   0.030836   0.001246   0.022391  -0.000621
    22  H   -0.000766  -0.001749  -0.000646   0.000004  -0.000294   0.000038
    23  H   -0.000384  -0.001828  -0.000767  -0.000051  -0.001559   0.002029
    24  C    0.356130   0.369133   0.356536  -0.000324  -0.005534   0.003365
    25  H    0.457165   0.012032   0.013135   0.000010   0.000185   0.000004
    26  H    0.012032   0.433936   0.010670   0.000000   0.000093  -0.000019
    27  H    0.013135   0.010670   0.454895   0.000008   0.003639   0.000790
    28  H    0.000010   0.000000   0.000008   0.446151   0.022414  -0.000476
    29  C    0.000185   0.000093   0.003639   0.022414   4.651309   0.348117
    30  H    0.000004  -0.000019   0.000790  -0.000476   0.348117   0.464695
    31  H    0.000000   0.000000  -0.000006  -0.001445   0.336822   0.015440
    32  H    0.000000   0.000000  -0.000044  -0.001894   0.366779   0.010626
              31         32
     1  Pt   0.022477  -0.001607
     2  Cl  -0.000248   0.000042
     3  Sn   0.000278  -0.001403
     4  Sn  -0.004456   0.007756
     5  Cl   0.000029  -0.000012
     6  Cl   0.001311  -0.000504
     7  Cl  -0.000605  -0.000829
     8  Cl  -0.000012   0.000000
     9  Cl   0.000013   0.000009
    10  Cl   0.000069   0.000007
    11  P    0.030275  -0.002946
    12  C    0.029404   0.036930
    13  H   -0.000394  -0.001777
    14  C    0.000039  -0.000034
    15  H    0.000002  -0.000003
    16  H    0.000001  -0.000003
    17  C   -0.000004   0.000000
    18  H    0.000000   0.000000
    19  H    0.000000   0.000000
    20  H    0.000000   0.000000
    21  C   -0.003870  -0.000087
    22  H   -0.000001   0.000000
    23  H    0.000144   0.000010
    24  C    0.000146  -0.000040
    25  H    0.000000   0.000000
    26  H    0.000000   0.000000
    27  H   -0.000006  -0.000044
    28  H   -0.001445  -0.001894
    29  C    0.336822   0.366779
    30  H    0.015440   0.010626
    31  H    0.481377   0.012049
    32  H    0.012049   0.440112
 Mulliken charges:
               1
     1  Pt   0.153161
     2  Cl  -0.504564
     3  Sn   0.329879
     4  Sn   0.350000
     5  Cl  -0.218827
     6  Cl  -0.231592
     7  Cl  -0.248333
     8  Cl  -0.229164
     9  Cl  -0.261909
    10  Cl  -0.247920
    11  P    0.065369
    12  C   -0.384065
    13  H    0.112063
    14  C   -0.373212
    15  H    0.111976
    16  H    0.093849
    17  C   -0.114570
    18  H    0.076984
    19  H    0.096352
    20  H    0.135582
    21  C   -0.333686
    22  H    0.076127
    23  H    0.100537
    24  C   -0.214882
    25  H    0.115557
    26  H    0.144152
    27  H    0.118417
    28  H    0.089165
    29  C   -0.128668
    30  H    0.104199
    31  H    0.081163
    32  H    0.136862
 Sum of Mulliken charges =  -1.00000
 Mulliken charges with hydrogens summed into heavy atoms:
               1
     1  Pt   0.153161
     2  Cl  -0.504564
     3  Sn   0.329879
     4  Sn   0.350000
     5  Cl  -0.218827
     6  Cl  -0.231592
     7  Cl  -0.248333
     8  Cl  -0.229164
     9  Cl  -0.261909
    10  Cl  -0.247920
    11  P    0.065369
    12  C   -0.182838
    14  C   -0.167387
    17  C    0.194347
    21  C   -0.157022
    24  C    0.163243
    29  C    0.193556
 Electronic spatial extent (au):  <R**2>=          13483.3501
 Charge=             -1.0000 electrons
 Dipole moment (field-independent basis, Debye):
    X=             -0.2064    Y=             16.0117    Z=             -0.6170  Tot=             16.0249
 Quadrupole moment (field-independent basis, Debye-Ang):
   XX=           -322.7572   YY=           -238.8941   ZZ=           -242.1319
   XY=              3.1905   XZ=              1.5298   YZ=             -4.1547
 Traceless Quadrupole moment (field-independent basis, Debye-Ang):
   XX=            -54.8294   YY=             29.0336   ZZ=             25.7958
   XY=              3.1905   XZ=              1.5298   YZ=             -4.1547
 Octapole moment (field-independent basis, Debye-Ang**2):
  XXX=            -12.5192  YYY=             72.9391  ZZZ=            -12.8247  XYY=              1.4763
  XXY=             39.1838  XXZ=            -27.3322  XZZ=             -4.2439  YZZ=             22.5547
  YYZ=            -18.9978  XYZ=              1.1287
 Hexadecapole moment (field-independent basis, Debye-Ang**3):
 XXXX=         -11222.4490 YYYY=          -4934.7940 ZZZZ=          -2402.1437 XXXY=             25.9190
 XXXZ=             -4.1456 YYYX=             28.2872 YYYZ=             -5.5977 ZZZX=              2.3548
 ZZZY=              6.3208 XXYY=          -2628.1176 XXZZ=          -2244.5839 YYZZ=          -1239.1868
 XXYZ=            -60.8723 YYXZ=              1.9355 ZZXY=             -3.6175
 N-N= 8.199625836091D+03 E-N=-9.424429364606D+04  KE= 3.237197048871D+04
 Calculating spin-rotation constants.
 Leave Link  601 at Thu May 30 03:18:41 2019, MaxMem=  2013265920 cpu:       101.0
 (Enter /scr/programs/g09/l9999.exe)
 1\1\GINC-NEQC17\SP\RPBEPBE\Gen\C6H15Cl7P1Pt1Sn2(1-)\DIEGO\30-May-2019\
 0\\#PBEPBE/gen scf=(maxcycle=1000,conver=4) NMR=GIAO scrf=(solvent=dic
 hloromethane)\\estrutura 34\\-1,1\Pt,0,-0.022297,-0.116523,-0.274042\C
 l,0,-0.116402,-2.492258,-0.846554\Sn,0,2.573845,-0.590989,0.004708\Sn,
 0,-2.598437,-0.49034,0.124117\Cl,0,-3.133661,-2.250689,1.690333\Cl,0,-
 3.995818,-1.098724,-1.763116\Cl,0,-4.000172,1.264589,1.120818\Cl,0,3.0
 43663,-2.449825,1.490674\Cl,0,4.157951,0.976172,1.044924\Cl,0,3.886845
 ,-1.229035,-1.940487\P,0,-0.029799,2.164542,0.029458\C,0,-1.370878,2.9
 93239,-0.94005\H,0,-1.275158,4.075356,-0.756508\C,0,-0.325398,2.709187
 ,1.768875\H,0,-0.281052,3.811036,1.781038\H,0,-1.369786,2.431703,1.985
 314\C,0,0.622416,2.10142,2.805282\H,0,0.530299,1.00539,2.829288\H,0,1.
 676302,2.343221,2.603139\H,0,0.377568,2.482446,3.808535\C,0,1.525763,2
 .980492,-0.557508\H,0,2.34758,2.563593,0.042791\H,0,1.681988,2.611273,
 -1.584942\C,0,1.561884,4.513038,-0.516388\H,0,1.440394,4.899721,0.5077
 86\H,0,2.53794,4.865546,-0.884062\H,0,0.789255,4.973344,-1.15114\H,0,-
 2.325533,2.687938,-0.486897\C,0,-1.346323,2.682386,-2.436784\H,0,-0.38
 3187,2.951026,-2.90177\H,0,-1.521509,1.610527,-2.625536\H,0,-2.135005,
 3.252529,-2.957544\\Version=EM64L-G09RevD.01\State=1-A\HF=-32869.99940
 37\RMSD=4.013e-05\Dipole=-0.0812069,6.2994776,-0.2427371\Quadrupole=-4
 0.7643506,21.5857753,19.1785752,2.372035,1.1373567,-3.0889458\PG=C01 [
 X(C6H15Cl7P1Pt1Sn2)]\\@


 IT IS THE GODS' CUSTOM TO BRING LOW ALL THINGS OF SURPASSING GREATNESS.
     -- HERODOTUS
 IT IS THE LOFTY PINE THAT BY THE STORM IS OFTENER TOSSED;
 TOWERS FALL WITH HEAVIER CRASH WHICH HIGHER SOAR.
     -- HORACE
 THE BIGGER THEY COME, THE HARDER THEY FALL.
     -- BOB FITZSIMONS HEAVYWEIGHT CHAMPION, 1897-1899
 Job cpu time:       0 days  6 hours 42 minutes 35.7 seconds.
 File lengths (MBytes):  RWF=    625 Int=      0 D2E=      0 Chk=     46 Scr=      1
 Normal termination of Gaussian 09 at Thu May 30 03:18:41 2019.
