 Entering Gaussian System, Link 0=g09
 Input=estrutura109.com
 Output=estrutura109.log
 Initial command:
 /scr/programas/g09/l1.exe "/scr/nqtcm/Gau-2342.inp" -scrdir="/scr/nqtcm/"
 Entering Link 1 = /scr/programas/g09/l1.exe PID=      2345.
  
 Copyright (c) 1988,1990,1992,1993,1995,1998,2003,2009,2013,
            Gaussian, Inc.  All Rights Reserved.
  
 This is part of the Gaussian(R) 09 program.  It is based on
 the Gaussian(R) 03 system (copyright 2003, Gaussian, Inc.),
 the Gaussian(R) 98 system (copyright 1998, Gaussian, Inc.),
 the Gaussian(R) 94 system (copyright 1995, Gaussian, Inc.),
 the Gaussian 92(TM) system (copyright 1992, Gaussian, Inc.),
 the Gaussian 90(TM) system (copyright 1990, Gaussian, Inc.),
 the Gaussian 88(TM) system (copyright 1988, Gaussian, Inc.),
 the Gaussian 86(TM) system (copyright 1986, Carnegie Mellon
 University), and the Gaussian 82(TM) system (copyright 1983,
 Carnegie Mellon University). Gaussian is a federally registered
 trademark of Gaussian, Inc.
  
 This software contains proprietary and confidential information,
 including trade secrets, belonging to Gaussian, Inc.
  
 This software is provided under written license and may be
 used, copied, transmitted, or stored only in accord with that
 written license.
  
 The following legend is applicable only to US Government
 contracts under FAR:
  
                    RESTRICTED RIGHTS LEGEND
  
 Use, reproduction and disclosure by the US Government is
 subject to restrictions as set forth in subparagraphs (a)
 and (c) of the Commercial Computer Software - Restricted
 Rights clause in FAR 52.227-19.
  
 Gaussian, Inc.
 340 Quinnipiac St., Bldg. 40, Wallingford CT 06492
  
  
 ---------------------------------------------------------------
 Warning -- This program may not be used in any manner that
 competes with the business of Gaussian, Inc. or will provide
 assistance to any competitor of Gaussian, Inc.  The licensee
 of this program is prohibited from giving any competitor of
 Gaussian, Inc. access to this program.  By using this program,
 the user acknowledges that Gaussian, Inc. is engaged in the
 business of creating and licensing software in the field of
 computational chemistry and represents and warrants to the
 licensee that it is not a competitor of Gaussian, Inc. and that
 it will not use this program in any manner prohibited above.
 ---------------------------------------------------------------
  

 Cite this work as:
 Gaussian 09, Revision D.01,
 M. J. Frisch, G. W. Trucks, H. B. Schlegel, G. E. Scuseria, 
 M. A. Robb, J. R. Cheeseman, G. Scalmani, V. Barone, B. Mennucci, 
 G. A. Petersson, H. Nakatsuji, M. Caricato, X. Li, H. P. Hratchian, 
 A. F. Izmaylov, J. Bloino, G. Zheng, J. L. Sonnenberg, M. Hada, 
 M. Ehara, K. Toyota, R. Fukuda, J. Hasegawa, M. Ishida, T. Nakajima, 
 Y. Honda, O. Kitao, H. Nakai, T. Vreven, J. A. Montgomery, Jr., 
 J. E. Peralta, F. Ogliaro, M. Bearpark, J. J. Heyd, E. Brothers, 
 K. N. Kudin, V. N. Staroverov, T. Keith, R. Kobayashi, J. Normand, 
 K. Raghavachari, A. Rendell, J. C. Burant, S. S. Iyengar, J. Tomasi, 
 M. Cossi, N. Rega, J. M. Millam, M. Klene, J. E. Knox, J. B. Cross, 
 V. Bakken, C. Adamo, J. Jaramillo, R. Gomperts, R. E. Stratmann, 
 O. Yazyev, A. J. Austin, R. Cammi, C. Pomelli, J. W. Ochterski, 
 R. L. Martin, K. Morokuma, V. G. Zakrzewski, G. A. Voth, 
 P. Salvador, J. J. Dannenberg, S. Dapprich, A. D. Daniels, 
 O. Farkas, J. B. Foresman, J. V. Ortiz, J. Cioslowski, 
 and D. J. Fox, Gaussian, Inc., Wallingford CT, 2013.
 
 ******************************************
 Gaussian 09:  EM64L-G09RevD.01 24-Apr-2013
                29-Nov-2019 
 ******************************************
 %mem=7Gb
 %nproc=4
 Will use up to    4 processors via shared memory.
 ----------------------------------------------------------------------
 #PBEPBE/gen scf=(maxcycle=500,conver=3) NMR=GIAO Scrf=(solvent=Dichlor
 omethane)
 ----------------------------------------------------------------------
 1/38=1/1;
 2/12=2,17=6,18=5,40=1/2;
 3/5=7,11=2,16=1,25=1,30=1,70=2201,72=9,74=1009/1,2,8,3;
 4//1;
 5/5=2,6=3,7=500,38=5,53=9/2;
 8/6=1,10=90,11=11/1;
 10/13=100,45=16/2;
 6/7=2,8=2,9=2,10=2,28=1/1;
 99/9=1/99;
 Leave Link    1 at Fri Nov 29 20:59:34 2019, MaxMem=   939524096 cpu:         0.2
 (Enter /scr/programas/g09/l101.exe)
 -------------
 estrutura 109
 -------------
 Symbolic Z-matrix:
 Charge =  0 Multiplicity = 1
 Pt                    0.1124   -0.80853  -0.03615 
 P                    -2.25663  -1.17383   0.15156 
 C                    -3.55646   0.15486   0.29354 
 C                    -4.2835    0.39084   1.47347 
 C                    -3.90126   0.86984  -0.86754 
 C                    -5.33998   1.31092   1.48677 
 H                    -4.04864  -0.15486   2.38792 
 C                    -4.95471   1.78783  -0.85109 
 H                    -3.34885   0.70818  -1.79503 
 C                    -5.6836    2.00638   0.32427 
 H                    -5.90204   1.47289   2.41155 
 H                    -5.20615   2.33335  -1.76416 
 H                    -6.51382   2.71882   0.33538 
 C                    -2.51575  -2.14942   1.69944 
 C                    -3.2143   -3.3646    1.74052 
 C                    -1.96834  -1.63972   2.88994 
 C                    -3.37134  -4.04903   2.95014 
 H                    -3.62588  -3.79648   0.82881 
 C                    -2.13543  -2.31912   4.09839 
 H                    -1.40378  -0.70507   2.87472 
 C                    -2.83789  -3.52871   4.13185 
 H                    -3.91073  -4.99912   2.96419 
 H                    -1.70785  -1.90707   5.01534 
 H                    -2.96144  -4.06668   5.0752 
 C                    -2.98249  -2.13701  -1.24928 
 C                    -4.36324  -2.41281  -1.27066 
 C                    -2.19093  -2.54939  -2.33237 
 C                    -4.9303   -3.11364  -2.33586 
 H                    -5.00707  -2.07055  -0.45742 
 C                    -2.7645   -3.24122  -3.4049 
 H                    -1.12398  -2.33132  -2.3346 
 C                    -4.13011  -3.53297  -3.40529 
 H                    -6.00337  -3.32491  -2.33393 
 H                    -2.13504  -3.55638  -4.241 
 H                    -4.57426  -4.07908  -4.24054 
 Sn                   -0.00446   1.86941  -0.07506 
 P                     2.49263  -0.67348  -0.05657 
 C                     3.48137  -2.2415   -0.01701 
 C                     3.71469  -2.94022  -1.21507 
 C                     4.00424  -2.75198   1.18159 
 C                     4.4657   -4.11703  -1.21386 
 H                     3.31324  -2.56549  -2.15877 
 C                     4.75772  -3.93084   1.17917 
 H                     3.83433  -2.23204   2.12581 
 C                     4.99145  -4.61503  -0.01699 
 H                     4.64206  -4.64567  -2.15456 
 H                     5.16555  -4.31218   2.11851 
 H                     5.58574  -5.53213  -0.01792 
 C                     3.14418   0.09934  -1.60772 
 C                     4.50047   0.43282  -1.80006 
 C                     2.2576    0.23903  -2.68827 
 C                     4.93702   0.94407  -3.0249 
 H                     5.23678   0.28637  -1.00821 
 C                     2.7031    0.72817  -3.92173 
 H                     1.20632  -0.03821  -2.56503 
 C                     4.04017   1.09389  -4.08846 
 H                     5.99098   1.20585  -3.15139 
 H                     1.99808   0.81974  -4.75413 
 H                     4.38665   1.48649  -5.04775 
 C                     3.0872    0.20085   1.46651 
 C                     4.34864   0.80865   1.58868 
 C                     2.24819   0.15943   2.59639 
 C                     4.74848   1.37889   2.7999 
 H                     5.03327   0.84256   0.74342 
 C                     2.6529    0.71922   3.81321 
 H                     1.27148  -0.32588   2.52635 
 C                     3.90254   1.33631   3.91471 
 H                     5.73207   1.84968   2.86956 
 H                     1.98683   0.66829   4.68122 
 H                     4.22      1.77717   4.86298 
 Br                    0.27338  -3.45301   0.0717 
 Br                   -1.17514   2.62473  -2.33434 
 C                     1.86037   3.00889  -0.49703 
 H                     2.67995   2.43898  -0.03846 
 H                     1.95325   2.88153  -1.58449 
 C                    -1.19244   2.73835   1.58583 
 H                    -0.44065   3.21837   2.23381 
 H                    -1.56521   1.85699   2.12864 
 C                    -2.34616   3.69424   1.27234 
 H                    -2.94701   3.82434   2.19378 
 H                    -3.02922   3.22622   0.54761 
 C                    -1.95407   5.08149   0.75869 
 H                    -1.30703   5.57412   1.50786 
 H                    -1.34603   4.982    -0.15665 
 C                    -3.16615   5.97017   0.47315 
 H                    -2.86816   6.97145   0.12182 
 H                    -3.8103    5.52338  -0.30365 
 H                    -3.78481   6.10258   1.37763 
 C                     1.99997   4.49048  -0.13542 
 H                     2.93541   4.85061  -0.61141 
 H                     1.19337   5.08906  -0.59816 
 C                     2.07928   4.80713   1.36589 
 H                     1.06503   4.7913    1.80452 
 H                     2.64462   4.00762   1.88006 
 C                     2.73297   6.16148   1.66306 
 H                     2.21175   6.99162   1.14999 
 H                     2.72325   6.38497   2.74298 
 H                     3.78624   6.17649   1.32392 
 
 NAtoms=     98 NQM=       98 NQMF=       0 NMMI=      0 NMMIF=      0
                NMic=       0 NMicF=      0.
                    Isotopes and Nuclear Properties:
 (Nuclear quadrupole moments (NQMom) in fm**2, nuclear magnetic moments (NMagM)
  in nuclear magnetons)

  Atom         1           2           3           4           5           6           7           8           9          10
 IAtWgt=         195          31          12          12          12          12           1          12           1          12
 AtmWgt= 194.9648000  30.9737634  12.0000000  12.0000000  12.0000000  12.0000000   1.0078250  12.0000000   1.0078250  12.0000000
 NucSpn=           1           1           0           0           0           0           1           0           1           0
 AtZEff=   0.0000000   0.0000000   0.0000000   0.0000000   0.0000000   0.0000000   0.0000000   0.0000000   0.0000000   0.0000000
 NQMom=    0.0000000   0.0000000   0.0000000   0.0000000   0.0000000   0.0000000   0.0000000   0.0000000   0.0000000   0.0000000
 NMagM=    0.6095000   1.1316000   0.0000000   0.0000000   0.0000000   0.0000000   2.7928460   0.0000000   2.7928460   0.0000000
 AtZNuc=  78.0000000  15.0000000   6.0000000   6.0000000   6.0000000   6.0000000   1.0000000   6.0000000   1.0000000   6.0000000

  Atom        11          12          13          14          15          16          17          18          19          20
 IAtWgt=           1           1           1          12          12          12          12           1          12           1
 AtmWgt=   1.0078250   1.0078250   1.0078250  12.0000000  12.0000000  12.0000000  12.0000000   1.0078250  12.0000000   1.0078250
 NucSpn=           1           1           1           0           0           0           0           1           0           1
 AtZEff=   0.0000000   0.0000000   0.0000000   0.0000000   0.0000000   0.0000000   0.0000000   0.0000000   0.0000000   0.0000000
 NQMom=    0.0000000   0.0000000   0.0000000   0.0000000   0.0000000   0.0000000   0.0000000   0.0000000   0.0000000   0.0000000
 NMagM=    2.7928460   2.7928460   2.7928460   0.0000000   0.0000000   0.0000000   0.0000000   2.7928460   0.0000000   2.7928460
 AtZNuc=   1.0000000   1.0000000   1.0000000   6.0000000   6.0000000   6.0000000   6.0000000   1.0000000   6.0000000   1.0000000

  Atom        21          22          23          24          25          26          27          28          29          30
 IAtWgt=          12           1           1           1          12          12          12          12           1          12
 AtmWgt=  12.0000000   1.0078250   1.0078250   1.0078250  12.0000000  12.0000000  12.0000000  12.0000000   1.0078250  12.0000000
 NucSpn=           0           1           1           1           0           0           0           0           1           0
 AtZEff=   0.0000000   0.0000000   0.0000000   0.0000000   0.0000000   0.0000000   0.0000000   0.0000000   0.0000000   0.0000000
 NQMom=    0.0000000   0.0000000   0.0000000   0.0000000   0.0000000   0.0000000   0.0000000   0.0000000   0.0000000   0.0000000
 NMagM=    0.0000000   2.7928460   2.7928460   2.7928460   0.0000000   0.0000000   0.0000000   0.0000000   2.7928460   0.0000000
 AtZNuc=   6.0000000   1.0000000   1.0000000   1.0000000   6.0000000   6.0000000   6.0000000   6.0000000   1.0000000   6.0000000

  Atom        31          32          33          34          35          36          37          38          39          40
 IAtWgt=           1          12           1           1           1         118          31          12          12          12
 AtmWgt=   1.0078250  12.0000000   1.0078250   1.0078250   1.0078250 117.9018000  30.9737634  12.0000000  12.0000000  12.0000000
 NucSpn=           1           0           1           1           1           0           1           0           0           0
 AtZEff=   0.0000000   0.0000000   0.0000000   0.0000000   0.0000000   0.0000000   0.0000000   0.0000000   0.0000000   0.0000000
 NQMom=    0.0000000   0.0000000   0.0000000   0.0000000   0.0000000   0.0000000   0.0000000   0.0000000   0.0000000   0.0000000
 NMagM=    2.7928460   0.0000000   2.7928460   2.7928460   2.7928460   0.0000000   1.1316000   0.0000000   0.0000000   0.0000000
 AtZNuc=   1.0000000   6.0000000   1.0000000   1.0000000   1.0000000  50.0000000  15.0000000   6.0000000   6.0000000   6.0000000

  Atom        41          42          43          44          45          46          47          48          49          50
 IAtWgt=          12           1          12           1          12           1           1           1          12          12
 AtmWgt=  12.0000000   1.0078250  12.0000000   1.0078250  12.0000000   1.0078250   1.0078250   1.0078250  12.0000000  12.0000000
 NucSpn=           0           1           0           1           0           1           1           1           0           0
 AtZEff=   0.0000000   0.0000000   0.0000000   0.0000000   0.0000000   0.0000000   0.0000000   0.0000000   0.0000000   0.0000000
 NQMom=    0.0000000   0.0000000   0.0000000   0.0000000   0.0000000   0.0000000   0.0000000   0.0000000   0.0000000   0.0000000
 NMagM=    0.0000000   2.7928460   0.0000000   2.7928460   0.0000000   2.7928460   2.7928460   2.7928460   0.0000000   0.0000000
 AtZNuc=   6.0000000   1.0000000   6.0000000   1.0000000   6.0000000   1.0000000   1.0000000   1.0000000   6.0000000   6.0000000

  Atom        51          52          53          54          55          56          57          58          59          60
 IAtWgt=          12          12           1          12           1          12           1           1           1          12
 AtmWgt=  12.0000000  12.0000000   1.0078250  12.0000000   1.0078250  12.0000000   1.0078250   1.0078250   1.0078250  12.0000000
 NucSpn=           0           0           1           0           1           0           1           1           1           0
 AtZEff=   0.0000000   0.0000000   0.0000000   0.0000000   0.0000000   0.0000000   0.0000000   0.0000000   0.0000000   0.0000000
 NQMom=    0.0000000   0.0000000   0.0000000   0.0000000   0.0000000   0.0000000   0.0000000   0.0000000   0.0000000   0.0000000
 NMagM=    0.0000000   0.0000000   2.7928460   0.0000000   2.7928460   0.0000000   2.7928460   2.7928460   2.7928460   0.0000000
 AtZNuc=   6.0000000   6.0000000   1.0000000   6.0000000   1.0000000   6.0000000   1.0000000   1.0000000   1.0000000   6.0000000

  Atom        61          62          63          64          65          66          67          68          69          70
 IAtWgt=          12          12          12           1          12           1          12           1           1           1
 AtmWgt=  12.0000000  12.0000000  12.0000000   1.0078250  12.0000000   1.0078250  12.0000000   1.0078250   1.0078250   1.0078250
 NucSpn=           0           0           0           1           0           1           0           1           1           1
 AtZEff=   0.0000000   0.0000000   0.0000000   0.0000000   0.0000000   0.0000000   0.0000000   0.0000000   0.0000000   0.0000000
 NQMom=    0.0000000   0.0000000   0.0000000   0.0000000   0.0000000   0.0000000   0.0000000   0.0000000   0.0000000   0.0000000
 NMagM=    0.0000000   0.0000000   0.0000000   2.7928460   0.0000000   2.7928460   0.0000000   2.7928460   2.7928460   2.7928460
 AtZNuc=   6.0000000   6.0000000   6.0000000   1.0000000   6.0000000   1.0000000   6.0000000   1.0000000   1.0000000   1.0000000

  Atom        71          72          73          74          75          76          77          78          79          80
 IAtWgt=          79          79          12           1           1          12           1           1          12           1
 AtmWgt=  78.9183361  78.9183361  12.0000000   1.0078250   1.0078250  12.0000000   1.0078250   1.0078250  12.0000000   1.0078250
 NucSpn=           3           3           0           1           1           0           1           1           0           1
 AtZEff=   0.0000000   0.0000000   0.0000000   0.0000000   0.0000000   0.0000000   0.0000000   0.0000000   0.0000000   0.0000000
 NQMom=   31.3000000  31.3000000   0.0000000   0.0000000   0.0000000   0.0000000   0.0000000   0.0000000   0.0000000   0.0000000
 NMagM=    2.1063990   2.1063990   0.0000000   2.7928460   2.7928460   0.0000000   2.7928460   2.7928460   0.0000000   2.7928460
 AtZNuc=  35.0000000  35.0000000   6.0000000   1.0000000   1.0000000   6.0000000   1.0000000   1.0000000   6.0000000   1.0000000

  Atom        81          82          83          84          85          86          87          88          89          90
 IAtWgt=           1          12           1           1          12           1           1           1          12           1
 AtmWgt=   1.0078250  12.0000000   1.0078250   1.0078250  12.0000000   1.0078250   1.0078250   1.0078250  12.0000000   1.0078250
 NucSpn=           1           0           1           1           0           1           1           1           0           1
 AtZEff=   0.0000000   0.0000000   0.0000000   0.0000000   0.0000000   0.0000000   0.0000000   0.0000000   0.0000000   0.0000000
 NQMom=    0.0000000   0.0000000   0.0000000   0.0000000   0.0000000   0.0000000   0.0000000   0.0000000   0.0000000   0.0000000
 NMagM=    2.7928460   0.0000000   2.7928460   2.7928460   0.0000000   2.7928460   2.7928460   2.7928460   0.0000000   2.7928460
 AtZNuc=   1.0000000   6.0000000   1.0000000   1.0000000   6.0000000   1.0000000   1.0000000   1.0000000   6.0000000   1.0000000

  Atom        91          92          93          94          95          96          97          98
 IAtWgt=           1          12           1           1          12           1           1           1
 AtmWgt=   1.0078250  12.0000000   1.0078250   1.0078250  12.0000000   1.0078250   1.0078250   1.0078250
 NucSpn=           1           0           1           1           0           1           1           1
 AtZEff=   0.0000000   0.0000000   0.0000000   0.0000000   0.0000000   0.0000000   0.0000000   0.0000000
 NQMom=    0.0000000   0.0000000   0.0000000   0.0000000   0.0000000   0.0000000   0.0000000   0.0000000
 NMagM=    2.7928460   0.0000000   2.7928460   2.7928460   0.0000000   2.7928460   2.7928460   2.7928460
 AtZNuc=   1.0000000   6.0000000   1.0000000   1.0000000   6.0000000   1.0000000   1.0000000   1.0000000
 Leave Link  101 at Fri Nov 29 20:59:34 2019, MaxMem=   939524096 cpu:         0.7
 (Enter /scr/programas/g09/l202.exe)
 Stoichiometry    C44H48Br2P2PtSn
 Framework group  C1[X(C44H48Br2P2PtSn)]
 Deg. of freedom   288
 Full point group                 C1      NOp   1
 Largest Abelian subgroup         C1      NOp   1
 Largest concise Abelian subgroup C1      NOp   1
                         Standard orientation:                         
 ---------------------------------------------------------------------
 Center     Atomic      Atomic             Coordinates (Angstroms)
 Number     Number       Type             X           Y           Z
 ---------------------------------------------------------------------
      1         78           0        0.112404   -0.808526   -0.036150
      2         15           0       -2.256634   -1.173829    0.151564
      3          6           0       -3.556464    0.154858    0.293544
      4          6           0       -4.283498    0.390838    1.473465
      5          6           0       -3.901255    0.869835   -0.867539
      6          6           0       -5.339979    1.310917    1.486772
      7          1           0       -4.048639   -0.154859    2.387918
      8          6           0       -4.954708    1.787826   -0.851086
      9          1           0       -3.348845    0.708184   -1.795026
     10          6           0       -5.683596    2.006383    0.324267
     11          1           0       -5.902040    1.472890    2.411549
     12          1           0       -5.206148    2.333351   -1.764157
     13          1           0       -6.513815    2.718819    0.335376
     14          6           0       -2.515754   -2.149417    1.699436
     15          6           0       -3.214296   -3.364598    1.740517
     16          6           0       -1.968337   -1.639722    2.889935
     17          6           0       -3.371342   -4.049028    2.950144
     18          1           0       -3.625881   -3.796480    0.828808
     19          6           0       -2.135425   -2.319121    4.098393
     20          1           0       -1.403784   -0.705074    2.874715
     21          6           0       -2.837887   -3.528706    4.131847
     22          1           0       -3.910732   -4.999117    2.964191
     23          1           0       -1.707849   -1.907070    5.015342
     24          1           0       -2.961437   -4.066681    5.075201
     25          6           0       -2.982488   -2.137014   -1.249275
     26          6           0       -4.363244   -2.412807   -1.270660
     27          6           0       -2.190926   -2.549391   -2.332366
     28          6           0       -4.930301   -3.113640   -2.335856
     29          1           0       -5.007072   -2.070545   -0.457416
     30          6           0       -2.764496   -3.241218   -3.404897
     31          1           0       -1.123980   -2.331315   -2.334600
     32          6           0       -4.130111   -3.532968   -3.405285
     33          1           0       -6.003372   -3.324912   -2.333930
     34          1           0       -2.135044   -3.556378   -4.240999
     35          1           0       -4.574256   -4.079083   -4.240540
     36         50           0       -0.004455    1.869410   -0.075055
     37         15           0        2.492633   -0.673479   -0.056567
     38          6           0        3.481367   -2.241496   -0.017008
     39          6           0        3.714689   -2.940221   -1.215074
     40          6           0        4.004244   -2.751976    1.181592
     41          6           0        4.465697   -4.117028   -1.213861
     42          1           0        3.313244   -2.565485   -2.158768
     43          6           0        4.757720   -3.930838    1.179165
     44          1           0        3.834331   -2.232035    2.125812
     45          6           0        4.991448   -4.615031   -0.016987
     46          1           0        4.642057   -4.645673   -2.154565
     47          1           0        5.165553   -4.312184    2.118506
     48          1           0        5.585741   -5.532132   -0.017919
     49          6           0        3.144180    0.099336   -1.607724
     50          6           0        4.500472    0.432817   -1.800063
     51          6           0        2.257596    0.239031   -2.688265
     52          6           0        4.937020    0.944067   -3.024905
     53          1           0        5.236779    0.286367   -1.008211
     54          6           0        2.703095    0.728168   -3.921726
     55          1           0        1.206318   -0.038214   -2.565034
     56          6           0        4.040169    1.093891   -4.088460
     57          1           0        5.990980    1.205850   -3.151394
     58          1           0        1.998078    0.819743   -4.754126
     59          1           0        4.386646    1.486491   -5.047751
     60          6           0        3.087201    0.200846    1.466505
     61          6           0        4.348643    0.808654    1.588678
     62          6           0        2.248186    0.159428    2.596388
     63          6           0        4.748480    1.378891    2.799904
     64          1           0        5.033268    0.842562    0.743415
     65          6           0        2.652899    0.719217    3.813206
     66          1           0        1.271475   -0.325880    2.526348
     67          6           0        3.902544    1.336311    3.914709
     68          1           0        5.732069    1.849680    2.869564
     69          1           0        1.986827    0.668289    4.681216
     70          1           0        4.219997    1.777169    4.862975
     71         35           0        0.273383   -3.453006    0.071695
     72         35           0       -1.175142    2.624727   -2.334335
     73          6           0        1.860370    3.008892   -0.497029
     74          1           0        2.679950    2.438982   -0.038458
     75          1           0        1.953248    2.881529   -1.584491
     76          6           0       -1.192445    2.738353    1.585825
     77          1           0       -0.440652    3.218371    2.233805
     78          1           0       -1.565206    1.856993    2.128638
     79          6           0       -2.346156    3.694239    1.272341
     80          1           0       -2.947009    3.824344    2.193777
     81          1           0       -3.029219    3.226220    0.547613
     82          6           0       -1.954070    5.081492    0.758694
     83          1           0       -1.307032    5.574123    1.507860
     84          1           0       -1.346033    4.982004   -0.156647
     85          6           0       -3.166146    5.970174    0.473145
     86          1           0       -2.868163    6.971446    0.121820
     87          1           0       -3.810298    5.523381   -0.303647
     88          1           0       -3.784813    6.102584    1.377631
     89          6           0        1.999966    4.490482   -0.135419
     90          1           0        2.935410    4.850606   -0.611407
     91          1           0        1.193365    5.089060   -0.598156
     92          6           0        2.079282    4.807133    1.365890
     93          1           0        1.065035    4.791304    1.804519
     94          1           0        2.644622    4.007622    1.880064
     95          6           0        2.732974    6.161481    1.663056
     96          1           0        2.211747    6.991617    1.149988
     97          1           0        2.723254    6.384974    2.742976
     98          1           0        3.786242    6.176485    1.323917
 ---------------------------------------------------------------------
 Rotational constants (GHZ):      0.0479654      0.0445954      0.0334298
 Leave Link  202 at Fri Nov 29 20:59:34 2019, MaxMem=   939524096 cpu:         0.0
 (Enter /scr/programas/g09/l301.exe)
 General basis read from cards:  (5D, 7F)
 Centers:       7      9     11     12     13     18     20     22     23     24
 Centers:      29     31     33     34     35     42     44     46     47     48
 Centers:      53     55     57     58     59     64     66     68     69     70
 Centers:      74     75     77     78     80     81     83     84     86     87
 Centers:      88     90     91     93     94     96     97     98
 S 5 1.00
     Exponent=  2.8295215633D+02 Coefficients=  4.3000000000D-04
     Exponent=  8.7062201949D+01 Coefficients=  5.1000000000D-04
     Exponent=  2.6788369830D+01 Coefficients=  6.1600000000D-03
     Exponent=  8.2425753324D+00 Coefficients=  1.3030000000D-02
     Exponent=  2.5361770254D+00 Coefficients=  9.9490000000D-02
 S 1 1.00
     Exponent=  7.8036216165D-01 Coefficients=  1.0000000000D+00
 S 1 1.00
     Exponent=  2.4011143435D-01 Coefficients=  1.0000000000D+00
 P 1 1.00
     Exponent=  8.8150000000D-01 Coefficients=  1.0000000000D+00
 P 1 1.00
     Exponent=  1.7989200000D-01 Coefficients=  1.0000000000D+00
 ****
 Centers:       3      4      5      6      8     10     14     15     16     17
 Centers:      19     21     25     26     27     28     30     32     38     39
 Centers:      40     41     43     45     49     50     51     52     54     56
 Centers:      60     61     62     63     65     67     73     76     79     82
 Centers:      85     89     92     95
 S 6 1.00
     Exponent=  8.8461235339D+03 Coefficients=  5.3000000000D-04
     Exponent=  2.9487078446D+03 Coefficients=  7.7000000000D-04
     Exponent=  9.8290261488D+02 Coefficients=  4.0500000000D-03
     Exponent=  3.2763420496D+02 Coefficients=  1.4030000000D-02
     Exponent=  1.0921140165D+02 Coefficients=  5.3450000000D-02
     Exponent=  3.6403800551D+01 Coefficients=  1.7027000000D-01
 S 1 1.00
     Exponent=  1.2134600184D+01 Coefficients=  1.0000000000D+00
 S 1 1.00
     Exponent=  4.0448667279D+00 Coefficients=  1.0000000000D+00
 S 1 1.00
     Exponent=  1.3482889093D+00 Coefficients=  1.0000000000D+00
 S 1 1.00
     Exponent=  4.4942963643D-01 Coefficients=  1.0000000000D+00
 S 1 1.00
     Exponent=  1.4980987881D-01 Coefficients=  1.0000000000D+00
 P 4 1.00
     Exponent=  3.7294093393D+01 Coefficients=  3.9600000000D-03
     Exponent=  1.1475105659D+01 Coefficients=  1.8890000000D-02
     Exponent=  3.5308017414D+00 Coefficients=  9.4610000000D-02
     Exponent=  1.0864005358D+00 Coefficients=  3.1889000000D-01
 P 1 1.00
     Exponent=  3.3427708794D-01 Coefficients=  1.0000000000D+00
 P 1 1.00
     Exponent=  1.0285448860D-01 Coefficients=  1.0000000000D+00
 D 1 1.00
     Exponent=  4.7750000000D-01 Coefficients=  1.0000000000D+00
 D 1 1.00
     Exponent=  1.1998000000D-01 Coefficients=  1.0000000000D+00
 ****
 Centers:       2     37
 S 7 1.00
     Exponent=  5.9538004301D+04 Coefficients=  9.5000000000D-04
     Exponent=  2.1650183382D+04 Coefficients=  6.1000000000D-04
     Exponent=  7.8727939572D+03 Coefficients=  3.7500000000D-03
     Exponent=  2.8628341663D+03 Coefficients=  9.6300000000D-03
     Exponent=  1.0410306059D+03 Coefficients=  3.2430000000D-02
     Exponent=  3.7855658397D+02 Coefficients=  9.9500000000D-02
     Exponent=  1.3765693962D+02 Coefficients=  2.6570000000D-01
 S 1 1.00
     Exponent=  5.0057068954D+01 Coefficients=  1.0000000000D+00
 S 1 1.00
     Exponent=  1.8202570529D+01 Coefficients=  1.0000000000D+00
 S 1 1.00
     Exponent=  6.6191165560D+00 Coefficients=  1.0000000000D+00
 S 1 1.00
     Exponent=  2.4069514749D+00 Coefficients=  1.0000000000D+00
 S 1 1.00
     Exponent=  8.7525508178D-01 Coefficients=  1.0000000000D+00
 S 1 1.00
     Exponent=  3.1827457519D-01 Coefficients=  1.0000000000D+00
 S 1 1.00
     Exponent=  1.1573620916D-01 Coefficients=  1.0000000000D+00
 S 1 1.00
     Exponent=  4.2085894240D-02 Coefficients=  1.0000000000D+00
 P 5 1.00
     Exponent=  4.8799672315D+02 Coefficients=  2.1600000000D-03
     Exponent=  1.6266557438D+02 Coefficients=  9.7900000000D-03
     Exponent=  5.4221858128D+01 Coefficients=  5.4850000000D-02
     Exponent=  1.8073952709D+01 Coefficients=  2.1770000000D-01
     Exponent=  6.0246509031D+00 Coefficients=  4.8978000000D-01
 P 1 1.00
     Exponent=  2.0082169677D+00 Coefficients=  1.0000000000D+00
 P 1 1.00
     Exponent=  6.6940565590D-01 Coefficients=  1.0000000000D+00
 P 1 1.00
     Exponent=  2.2313521863D-01 Coefficients=  1.0000000000D+00
 P 1 1.00
     Exponent=  7.4378406211D-02 Coefficients=  1.0000000000D+00
 P 1 1.00
     Exponent=  2.4792802070D-02 Coefficients=  1.0000000000D+00
 D 1 1.00
     Exponent=  3.5395000000D-01 Coefficients=  1.0000000000D+00
 D 1 1.00
     Exponent=  8.9098000000D-02 Coefficients=  1.0000000000D+00
 ****
 Centers:      71     72
 S 7 1.00
     Exponent=  3.4867099512D+05 Coefficients=  2.4100000000D-03
     Exponent=  1.3946839805D+05 Coefficients=  1.2000000000D-04
     Exponent=  5.5787359218D+04 Coefficients=  5.8500000000D-03
     Exponent=  2.2314943687D+04 Coefficients=  8.2100000000D-03
     Exponent=  8.9259774750D+03 Coefficients=  2.4090000000D-02
     Exponent=  3.5703909900D+03 Coefficients=  5.7250000000D-02
     Exponent=  1.4281563960D+03 Coefficients=  1.4467000000D-01
 S 1 1.00
     Exponent=  5.7126255840D+02 Coefficients=  1.0000000000D+00
 S 1 1.00
     Exponent=  2.2850502336D+02 Coefficients=  1.0000000000D+00
 S 1 1.00
     Exponent=  9.1402009344D+01 Coefficients=  1.0000000000D+00
 S 1 1.00
     Exponent=  3.6560803737D+01 Coefficients=  1.0000000000D+00
 S 1 1.00
     Exponent=  1.4624321495D+01 Coefficients=  1.0000000000D+00
 S 1 1.00
     Exponent=  5.8497285980D+00 Coefficients=  1.0000000000D+00
 S 1 1.00
     Exponent=  2.3398914392D+00 Coefficients=  1.0000000000D+00
 S 1 1.00
     Exponent=  9.3595657568D-01 Coefficients=  1.0000000000D+00
 S 1 1.00
     Exponent=  3.7438263027D-01 Coefficients=  1.0000000000D+00
 S 1 1.00
     Exponent=  1.4975305211D-01 Coefficients=  1.0000000000D+00
 S 1 1.00
     Exponent=  5.9901220843D-02 Coefficients=  1.0000000000D+00
 P 5 1.00
     Exponent=  4.2715043612D+03 Coefficients=  2.0900000000D-03
     Exponent=  1.5532743132D+03 Coefficients=  5.5700000000D-03
     Exponent=  5.6482702297D+02 Coefficients=  3.0250000000D-02
     Exponent=  2.0539164472D+02 Coefficients=  1.2196000000D-01
     Exponent=  7.4687870806D+01 Coefficients=  3.7861000000D-01
 P 1 1.00
     Exponent=  2.7159225748D+01 Coefficients=  1.0000000000D+00
 P 1 1.00
     Exponent=  9.8760820901D+00 Coefficients=  1.0000000000D+00
 P 1 1.00
     Exponent=  3.5913025782D+00 Coefficients=  1.0000000000D+00
 P 1 1.00
     Exponent=  1.3059282103D+00 Coefficients=  1.0000000000D+00
 P 1 1.00
     Exponent=  4.7488298555D-01 Coefficients=  1.0000000000D+00
 P 1 1.00
     Exponent=  1.7268472202D-01 Coefficients=  1.0000000000D+00
 P 1 1.00
     Exponent=  6.2794444370D-02 Coefficients=  1.0000000000D+00
 P 1 1.00
     Exponent=  2.2834343407D-02 Coefficients=  1.0000000000D+00
 D 4 1.00
     Exponent=  1.5776624282D+02 Coefficients=  7.9800000000D-03
     Exponent=  5.2588747607D+01 Coefficients=  4.9870000000D-02
     Exponent=  1.7529582536D+01 Coefficients=  2.2405000000D-01
     Exponent=  5.8431941786D+00 Coefficients=  4.4250000000D-01
 D 1 1.00
     Exponent=  1.9477313929D+00 Coefficients=  1.0000000000D+00
 D 1 1.00
     Exponent=  6.4924379762D-01 Coefficients=  1.0000000000D+00
 F 1 1.00
     Exponent=  1.6480000000D+00 Coefficients=  1.0000000000D+00
 F 1 1.00
     Exponent=  4.5490000000D-01 Coefficients=  1.0000000000D+00
 ****
 Centers:      36
 S 8 1.00
     Exponent=  7.5448214551D+05 Coefficients=  4.4300000000D-03
     Exponent=  3.3532539800D+05 Coefficients=  1.9800000000D-03
     Exponent=  1.4903351022D+05 Coefficients=  9.0500000000D-03
     Exponent=  6.6237115655D+04 Coefficients=  4.8700000000D-03
     Exponent=  2.9438718069D+04 Coefficients=  2.0770000000D-02
     Exponent=  1.3083874697D+04 Coefficients=  3.2900000000D-02
     Exponent=  5.8150554210D+03 Coefficients=  7.7010000000D-02
     Exponent=  2.5844690760D+03 Coefficients=  1.5160000000D-01
 S 1 1.00
     Exponent=  1.1486529227D+03 Coefficients=  1.0000000000D+00
 S 1 1.00
     Exponent=  5.1051241008D+02 Coefficients=  1.0000000000D+00
 S 1 1.00
     Exponent=  2.2689440448D+02 Coefficients=  1.0000000000D+00
 S 1 1.00
     Exponent=  1.0084195755D+02 Coefficients=  1.0000000000D+00
 S 1 1.00
     Exponent=  4.4818647798D+01 Coefficients=  1.0000000000D+00
 S 1 1.00
     Exponent=  1.9919399021D+01 Coefficients=  1.0000000000D+00
 S 1 1.00
     Exponent=  8.8530662317D+00 Coefficients=  1.0000000000D+00
 S 1 1.00
     Exponent=  3.9346961030D+00 Coefficients=  1.0000000000D+00
 S 1 1.00
     Exponent=  1.7487538235D+00 Coefficients=  1.0000000000D+00
 S 1 1.00
     Exponent=  7.7722392158D-01 Coefficients=  1.0000000000D+00
 S 1 1.00
     Exponent=  3.4543285403D-01 Coefficients=  1.0000000000D+00
 S 1 1.00
     Exponent=  1.5352571290D-01 Coefficients=  1.0000000000D+00
 S 1 1.00
     Exponent=  6.8233650180D-02 Coefficients=  1.0000000000D+00
 S 1 1.00
     Exponent=  1.3478251887D-02 Coefficients=  1.0000000000D+00
 P 5 1.00
     Exponent=  1.0090658304D+04 Coefficients=  2.7500000000D-03
     Exponent=  4.0362633217D+03 Coefficients=  4.1800000000D-03
     Exponent=  1.6145053287D+03 Coefficients=  2.0890000000D-02
     Exponent=  6.4580213147D+02 Coefficients=  7.1370000000D-02
     Exponent=  2.5832085259D+02 Coefficients=  2.2613000000D-01
 P 1 1.00
     Exponent=  1.0332834104D+02 Coefficients=  1.0000000000D+00
 P 1 1.00
     Exponent=  4.1331336414D+01 Coefficients=  1.0000000000D+00
 P 1 1.00
     Exponent=  1.6532534566D+01 Coefficients=  1.0000000000D+00
 P 1 1.00
     Exponent=  6.6130138263D+00 Coefficients=  1.0000000000D+00
 P 1 1.00
     Exponent=  2.6452055305D+00 Coefficients=  1.0000000000D+00
 P 1 1.00
     Exponent=  1.0580822122D+00 Coefficients=  1.0000000000D+00
 P 1 1.00
     Exponent=  4.2323288488D-01 Coefficients=  1.0000000000D+00
 P 1 1.00
     Exponent=  1.6929315395D-01 Coefficients=  1.0000000000D+00
 P 1 1.00
     Exponent=  6.7717261581D-02 Coefficients=  1.0000000000D+00
 P 1 1.00
     Exponent=  2.7086904632D-02 Coefficients=  1.0000000000D+00
 P 1 1.00
     Exponent=  1.0834761853D-02 Coefficients=  1.0000000000D+00
 D 4 1.00
     Exponent=  5.5430250651D+02 Coefficients=  4.3700000000D-03
     Exponent=  2.0156454782D+02 Coefficients=  2.5110000000D-02
     Exponent=  7.3296199207D+01 Coefficients=  1.3316000000D-01
     Exponent=  2.6653163348D+01 Coefficients=  3.8900000000D-01
 D 1 1.00
     Exponent=  9.6920593993D+00 Coefficients=  1.0000000000D+00
 D 1 1.00
     Exponent=  3.5243852361D+00 Coefficients=  1.0000000000D+00
 D 1 1.00
     Exponent=  1.2815946313D+00 Coefficients=  1.0000000000D+00
 D 1 1.00
     Exponent=  4.6603441139D-01 Coefficients=  1.0000000000D+00
 D 1 1.00
     Exponent=  1.6946705869D-01 Coefficients=  1.0000000000D+00
 F 1 1.00
     Exponent=  1.3140000000D+00 Coefficients=  1.0000000000D+00
 F 1 1.00
     Exponent=  1.9993000000D-01 Coefficients=  1.0000000000D+00
 ****
 Centers:       1
 S 9 1.00
     Exponent=  2.1644816090D+06 Coefficients=  1.2320000000D-02
     Exponent=  1.0822408045D+06 Coefficients=  1.2970000000D-02
     Exponent=  5.4112040224D+05 Coefficients=  2.6370000000D-02
     Exponent=  2.7056020112D+05 Coefficients=  9.0400000000D-03
     Exponent=  1.3528010056D+05 Coefficients=  3.4980000000D-02
     Exponent=  6.7640050280D+04 Coefficients=  1.2220000000D-02
     Exponent=  3.3820025140D+04 Coefficients=  6.0520000000D-02
     Exponent=  1.6910012570D+04 Coefficients=  6.4930000000D-02
     Exponent=  8.4550062850D+03 Coefficients=  1.3819000000D-01
 S 1 1.00
     Exponent=  4.2275031425D+03 Coefficients=  1.0000000000D+00
 S 1 1.00
     Exponent=  2.1137515713D+03 Coefficients=  1.0000000000D+00
 S 1 1.00
     Exponent=  1.0568757856D+03 Coefficients=  1.0000000000D+00
 S 1 1.00
     Exponent=  5.2843789281D+02 Coefficients=  1.0000000000D+00
 S 1 1.00
     Exponent=  2.6421894641D+02 Coefficients=  1.0000000000D+00
 S 1 1.00
     Exponent=  1.3210947320D+02 Coefficients=  1.0000000000D+00
 S 1 1.00
     Exponent=  6.6054736602D+01 Coefficients=  1.0000000000D+00
 S 1 1.00
     Exponent=  3.3027368301D+01 Coefficients=  1.0000000000D+00
 S 1 1.00
     Exponent=  1.6513684150D+01 Coefficients=  1.0000000000D+00
 S 1 1.00
     Exponent=  8.2568420752D+00 Coefficients=  1.0000000000D+00
 S 1 1.00
     Exponent=  4.1284210376D+00 Coefficients=  1.0000000000D+00
 S 1 1.00
     Exponent=  2.0642105188D+00 Coefficients=  1.0000000000D+00
 S 1 1.00
     Exponent=  1.0321052594D+00 Coefficients=  1.0000000000D+00
 S 1 1.00
     Exponent=  5.1605262970D-01 Coefficients=  1.0000000000D+00
 S 1 1.00
     Exponent=  2.5802631485D-01 Coefficients=  1.0000000000D+00
 S 1 1.00
     Exponent=  1.2901315743D-01 Coefficients=  1.0000000000D+00
 S 1 1.00
     Exponent=  6.4506578713D-02 Coefficients=  1.0000000000D+00
 P 7 1.00
     Exponent=  3.2357915258D+04 Coefficients=  5.0200000000D-03
     Exponent=  1.4381295670D+04 Coefficients=  2.0200000000D-03
     Exponent=  6.3916869645D+03 Coefficients=  1.8070000000D-02
     Exponent=  2.8407497620D+03 Coefficients=  3.6620000000D-02
     Exponent=  1.2625554498D+03 Coefficients=  1.1172000000D-01
     Exponent=  5.6113575545D+02 Coefficients=  2.5586000000D-01
     Exponent=  2.4939366909D+02 Coefficients=  4.2608000000D-01
 P 1 1.00
     Exponent=  1.1084163071D+02 Coefficients=  1.0000000000D+00
 P 1 1.00
     Exponent=  4.9262946981D+01 Coefficients=  1.0000000000D+00
 P 1 1.00
     Exponent=  2.1894643103D+01 Coefficients=  1.0000000000D+00
 P 1 1.00
     Exponent=  9.7309524900D+00 Coefficients=  1.0000000000D+00
 P 1 1.00
     Exponent=  4.3248677733D+00 Coefficients=  1.0000000000D+00
 P 1 1.00
     Exponent=  1.9221634548D+00 Coefficients=  1.0000000000D+00
 P 1 1.00
     Exponent=  8.5429486881D-01 Coefficients=  1.0000000000D+00
 P 1 1.00
     Exponent=  3.7968660836D-01 Coefficients=  1.0000000000D+00
 P 1 1.00
     Exponent=  1.6874960372D-01 Coefficients=  1.0000000000D+00
 P 1 1.00
     Exponent=  7.4999823874D-02 Coefficients=  1.0000000000D+00
 P 1 1.00
     Exponent=  3.3333255055D-02 Coefficients=  1.0000000000D+00
 D 5 1.00
     Exponent=  1.9119003508D+03 Coefficients=  4.3300000000D-03
     Exponent=  7.6476014031D+02 Coefficients=  1.7780000000D-02
     Exponent=  3.0590405613D+02 Coefficients=  8.9710000000D-02
     Exponent=  1.2236162245D+02 Coefficients=  3.1123000000D-01
     Exponent=  4.8944648980D+01 Coefficients=  5.3206000000D-01
 D 1 1.00
     Exponent=  1.9577859592D+01 Coefficients=  1.0000000000D+00
 D 1 1.00
     Exponent=  7.8311438368D+00 Coefficients=  1.0000000000D+00
 D 1 1.00
     Exponent=  3.1324575347D+00 Coefficients=  1.0000000000D+00
 D 1 1.00
     Exponent=  1.2529830139D+00 Coefficients=  1.0000000000D+00
 D 1 1.00
     Exponent=  5.0119320556D-01 Coefficients=  1.0000000000D+00
 D 1 1.00
     Exponent=  2.0047728222D-01 Coefficients=  1.0000000000D+00
 D 1 1.00
     Exponent=  8.0190912889D-02 Coefficients=  1.0000000000D+00
 D 1 1.00
     Exponent=  3.2076365156D-02 Coefficients=  1.0000000000D+00
 F 4 1.00
     Exponent=  8.2289680979D+01 Coefficients=  6.1870000000D-02
     Exponent=  2.9923520356D+01 Coefficients=  2.4823000000D-01
     Exponent=  1.0881280130D+01 Coefficients=  4.9956000000D-01
     Exponent=  3.9568291380D+00 Coefficients=  4.0380000000D-01
 F 1 1.00
     Exponent=  1.4388469593D+00 Coefficients=  1.0000000000D+00
 F 1 1.00
     Exponent=  5.2321707610D-01 Coefficients=  1.0000000000D+00
 G 1 1.00
     Exponent=  2.6700000000D+00 Coefficients=  1.0000000000D+00
 G 1 1.00
     Exponent=  9.0960000000D-01 Coefficients=  1.0000000000D+00
 ****
 Ernie: Thresh=  0.10000D-02 Tol=  0.10000D-05 Strict=F.
 There are  2127 symmetry adapted cartesian basis functions of A   symmetry.
 There are  1975 symmetry adapted basis functions of A   symmetry.
  1975 basis functions,  3160 primitive gaussians,  2127 cartesian basis functions
   270 alpha electrons      270 beta electrons
       nuclear repulsion energy     15436.6606495620 Hartrees.
 IExCor= 1009 DFT=T Ex=PBE Corr=PBE ExCW=0 ScaHFX=  0.000000
 ScaDFX=  1.000000  1.000000  1.000000  1.000000 ScalE2=  1.000000  1.000000
 IRadAn=      0 IRanWt=     -1 IRanGd=            0 ICorTp=0 IEmpDi=  4
 NAtoms=   98 NActive=   98 NUniq=   98 SFac= 1.00D+00 NAtFMM=   60 NAOKFM=T Big=T
 Integral buffers will be    131072 words long.
 Raffenetti 2 integral format.
 Two-electron integral symmetry is turned on.
 ------------------------------------------------------------------------------
 Polarizable Continuum Model (PCM)
 =================================
 Model                : PCM (using non-symmetric T matrix).
 Atomic radii         : UFF (Universal Force Field).
 Polarization charges : Total charges.
 Charge compensation  : None.
 Solution method      : On-the-fly selection.
 Cavity type          : Scaled VdW (van der Waals Surface) (Alpha=1.100).
 Cavity algorithm     : GePol (No added spheres)
                        Default sphere list used, NSphG=   98.
                        Lebedev-Laikov grids with approx.  5.0 points / Ang**2.
                        Smoothing algorithm: Karplus/York (Gamma=1.0000).
                        Polarization charges: spherical gaussians, with
                                              point-specific exponents (IZeta= 3).
                        Self-potential: point-specific (ISelfS= 7).
                        Self-field    : sphere-specific E.n sum rule (ISelfD= 2).
 Solvent              : Dichloromethane, Eps=   8.930000 Eps(inf)=   2.028346
 ------------------------------------------------------------------------------
 GePol: Number of generator spheres                  =      98
 GePol: Total number of spheres                      =      98
 GePol: Number of exposed spheres                    =      98 (100.00%)
 GePol: Number of points                             =    6866
 GePol: Average weight of points                     =       0.13
 GePol: Minimum weight of points                     =   0.22D-11
 GePol: Maximum weight of points                     =    0.21838
 GePol: Number of points with low weight             =     537
 GePol: Fraction of low-weight points (<1% of avg)   =       7.82%
 GePol: Cavity surface area                          =    867.451 Ang**2
 GePol: Cavity volume                                =   1087.280 Ang**3
 Leave Link  301 at Fri Nov 29 20:59:34 2019, MaxMem=   939524096 cpu:         1.0
 (Enter /scr/programas/g09/l302.exe)
 NPDir=0 NMtPBC=     1 NCelOv=     1 NCel=       1 NClECP=     1 NCelD=      1
         NCelK=      1 NCelE2=     1 NClLst=     1 CellRange=     0.0.
 One-electron integrals computed using PRISM.
 NBasis=  1975 RedAO= T EigKep=  1.44D-06  NBF=  1975
 NBsUse=  1975 1.00D-06 EigRej= -1.00D+00 NBFU=  1975
 Precomputing XC quadrature grid using
 IXCGrd= 4 IRadAn=           0 IRanWt=          -1 IRanGd=           0 AccXCQ= 0.00D+00.
 Defaulting to unpruned grid for atomic number  78.
 Defaulting to unpruned grid for atomic number  50.
 Generated NRdTot=       0 NPtTot=           0 NUsed=           0 NTot=          32
 NSgBfM=  1783  1785  1789  1790  1794 MxSgAt=    98 MxSgA2=    98.
 Leave Link  302 at Fri Nov 29 21:00:04 2019, MaxMem=   939524096 cpu:       109.6
 (Enter /scr/programas/g09/l308.exe)
 Leave Link  308 at Fri Nov 29 21:00:07 2019, MaxMem=   939524096 cpu:         7.9
 (Enter /scr/programas/g09/l303.exe)
 DipDrv:  MaxL=1.
 Leave Link  303 at Fri Nov 29 21:00:08 2019, MaxMem=   939524096 cpu:         4.1
 (Enter /scr/programas/g09/l401.exe)
 ExpMin= 1.08D-02 ExpMax= 2.16D+06 ExpMxC= 2.16D+06 IAcc=4 IRadAn=    199590 AccDes= 0.00D+00
 Harris functional with IExCor= 1009 and IRadAn=  199590 diagonalized for initial guess.
 HarFok:  IExCor= 1009 AccDes= 0.00D+00 IRadAn=    199590 IDoV= 1 UseB2=F ITyADJ=14
 ICtDFT=  3500011 ScaDFX=  1.000000  1.000000  1.000000  1.000000
 FoFCou: FMM=F IPFlag=           0 FMFlag=      100000 FMFlg1=        2001
         NFxFlg=           0 DoJE=T BraDBF=F KetDBF=T FulRan=T
         wScrn=  0.000000 ICntrl=     500 IOpCl=  0 I1Cent=   200000004 NGrid=           0
         NMat0=    1 NMatS0=      1 NMatT0=    0 NMatD0=    1 NMtDS0=    0 NMtDT0=    0
 Petite list used in FoFCou.
 Harris En= -30628.7226403057    
 JPrj=0 DoOrth=F DoCkMO=F.
 Leave Link  401 at Fri Nov 29 21:14:55 2019, MaxMem=   939524096 cpu:      3290.3
 (Enter /scr/programas/g09/l502.exe)
 Closed shell SCF:
 Using DIIS extrapolation, IDIIS=  1040.
 Integral symmetry usage will be decided dynamically.
 IVT=    13854997 IEndB=    13854997 NGot=   939524096 MDV=   930446356
 LenX=   930446356 LenY=   925920100
 Requested convergence on RMS density matrix=1.00D-03 within 500 cycles.
 Requested convergence on MAX density matrix=1.00D-01.
 Requested convergence on             energy=1.00D-01.
 No special actions if energy rises.
 Fock matrices will be formed incrementally for  20 cycles.

 Cycle   1  Pass 1  IDiag  1:
 FoFJK:  IHMeth= 1 ICntrl=     500 DoSepK=F KAlg= 0 I1Cent=   0 FoldK=F
 IRaf= 610000000 NMat=   1 IRICut=       1 DoRegI=T DoRafI=F ISym2E= 0.
 FoFCou: FMM=T IPFlag=           0 FMFlag=      100000 FMFlg1=        2001
         NFxFlg=           0 DoJE=T BraDBF=F KetDBF=F FulRan=T
         wScrn=  0.000000 ICntrl=     500 IOpCl=  0 I1Cent=           0 NGrid=           0
         NMat0=    1 NMatS0=      1 NMatT0=    0 NMatD0=    1 NMtDS0=    0 NMtDT0=    0
 Symmetry not used in FoFCou.
 FMM levels:  10  Number of levels for PrismC:   9
 Defaulting to unpruned grid for atomic number  78.
 Defaulting to unpruned grid for atomic number  78.
 Defaulting to unpruned grid for atomic number  78.
 Defaulting to unpruned grid for atomic number  78.
 Inv3:  Mode=1 IEnd=   141425868.
 Iteration    1 A*A^-1 deviation from unit magnitude is 1.09D-14 for   6041.
 Iteration    1 A*A^-1 deviation from orthogonality  is 1.18D-14 for   5737   1317.
 Iteration    1 A^-1*A deviation from unit magnitude is 1.20D-14 for   3027.
 Iteration    1 A^-1*A deviation from orthogonality  is 6.12D-11 for   5713   5700.
 E= -30607.7396182642    
 DIIS: error= 1.84D-01 at cycle   1 NSaved=   1.
 NSaved= 1 IEnMin= 1 EnMin= -30607.7396182642     IErMin= 1 ErrMin= 1.84D-01
 ErrMax= 1.84D-01  0.00D+00 EMaxC= 1.00D-01 BMatC= 3.39D+02 BMatP= 3.39D+02
 IDIUse=3 WtCom= 0.00D+00 WtEn= 1.00D+00
 Coeff-Com:  0.100D+01
 Coeff-En:   0.100D+01
 Coeff:      0.100D+01
 Gap=     0.781 Goal=   None    Shift=    0.000
 GapD=    0.781 DampG=2.000 DampE=0.125 DampFc=0.2500 IDamp=-1.
 Damping current iteration by 2.50D-01
 RMSDP=1.63D-02 MaxDP=6.03D+00              OVMax= 7.31D-01

 Cycle   2  Pass 1  IDiag  1:
 RMSU=  3.82D-03    CP:  1.11D+00
 E= -30609.5559998760     Delta-E=       -1.816381611832 Rises=F Damp=T
 DIIS: error= 1.28D-01 at cycle   2 NSaved=   2.
 NSaved= 2 IEnMin= 2 EnMin= -30609.5559998760     IErMin= 2 ErrMin= 1.28D-01
 ErrMax= 1.28D-01  0.00D+00 EMaxC= 1.00D-01 BMatC= 1.63D+02 BMatP= 3.39D+02
 IDIUse=3 WtCom= 0.00D+00 WtEn= 1.00D+00
 Coeff-Com: -0.197D+01 0.297D+01
 Coeff-En:   0.794D-01 0.921D+00
 Coeff:      0.794D-01 0.921D+00
 Gap=    -0.014 Goal=   None    Shift=    0.000
 RMSDP=8.28D-03 MaxDP=2.27D+00 DE=-1.82D+00 OVMax= 5.60D-01

 Cycle   3  Pass 1  IDiag  1:
 RMSU=  5.44D-03    CP:  7.13D-01  1.37D-01
 E= -30611.9493463012     Delta-E=       -2.393346425168 Rises=F Damp=F
 DIIS: error= 4.33D-02 at cycle   3 NSaved=   3.
 NSaved= 3 IEnMin= 3 EnMin= -30611.9493463012     IErMin= 3 ErrMin= 4.33D-02
 ErrMax= 4.33D-02  0.00D+00 EMaxC= 1.00D-01 BMatC= 1.18D+01 BMatP= 1.63D+02
 IDIUse=3 WtCom= 5.67D-01 WtEn= 4.33D-01
 EnCoef did   100 forward-backward iterations
 Coeff-Com:  0.882D+00-0.105D+01 0.117D+01
 Coeff-En:   0.223D+00 0.304D-02 0.774D+00
 Coeff:      0.597D+00-0.596D+00 0.100D+01
 Gap=     0.105 Goal=   None    Shift=    0.000
 RMSDP=1.66D-02 MaxDP=4.88D+00 DE=-2.39D+00 OVMax= 8.73D-01

 Cycle   4  Pass 1  IDiag  1:
 RMSU=  9.84D-03    CP:  1.41D+00  1.98D+00 -1.83D-01
 E= -30588.7293129013     Delta-E=       23.220033399935 Rises=F Damp=F
 DIIS: error= 3.53D-02 at cycle   4 NSaved=   4.
 NSaved= 4 IEnMin= 3 EnMin= -30611.9493463012     IErMin= 4 ErrMin= 3.53D-02
 ErrMax= 3.53D-02  0.00D+00 EMaxC= 1.00D-01 BMatC= 1.82D+01 BMatP= 1.18D+01
 IDIUse=2 WtCom= 0.00D+00 WtEn= 1.00D+00
 EnCoef did   100 forward-backward iterations
 Coeff-En:   0.217D+00 0.145D-02 0.766D+00 0.157D-01
 Coeff:      0.217D+00 0.145D-02 0.766D+00 0.157D-01
 Gap=     0.006 Goal=   None    Shift=    0.000
 RMSDP=1.31D-02 MaxDP=4.48D+00 DE= 2.32D+01 OVMax= 8.32D-01

 Cycle   5  Pass 1  IDiag  1:
 RMSU=  3.65D-03    CP:  9.36D-01  2.61D-01  3.53D-01  1.75D-01
 E= -30605.7021796580     Delta-E=      -16.972866756754 Rises=F Damp=F
 DIIS: error= 5.15D-02 at cycle   5 NSaved=   5.
 NSaved= 5 IEnMin= 3 EnMin= -30611.9493463012     IErMin= 4 ErrMin= 3.53D-02
 ErrMax= 5.15D-02  0.00D+00 EMaxC= 1.00D-01 BMatC= 1.07D+01 BMatP= 1.18D+01
 IDIUse=3 WtCom= 4.85D-01 WtEn= 5.15D-01
 EnCoef did   100 forward-backward iterations
 Coeff-Com:  0.389D+00-0.455D+00 0.690D+00 0.152D+00 0.224D+00
 Coeff-En:   0.000D+00 0.000D+00 0.745D+00 0.322D-02 0.252D+00
 Coeff:      0.189D+00-0.221D+00 0.718D+00 0.754D-01 0.239D+00
 Gap=     0.134 Goal=   None    Shift=    0.000
 RMSDP=5.06D-03 MaxDP=6.39D-01 DE=-1.70D+01 OVMax= 5.99D-01

 Cycle   6  Pass 1  IDiag  1:
 RMSU=  2.63D-03    CP:  8.55D-01  6.06D-01  3.86D-01  3.31D-02 -1.84D-02
 E= -30613.1056000669     Delta-E=       -7.403420408875 Rises=F Damp=F
 DIIS: error= 8.44D-03 at cycle   6 NSaved=   6.
 NSaved= 6 IEnMin= 6 EnMin= -30613.1056000669     IErMin= 6 ErrMin= 8.44D-03
 ErrMax= 8.44D-03  0.00D+00 EMaxC= 1.00D-01 BMatC= 1.00D+00 BMatP= 1.07D+01
 IDIUse=3 WtCom= 9.16D-01 WtEn= 8.44D-02
 EnCoef did     6 forward-backward iterations
 Coeff-Com:  0.572D-01-0.600D-01 0.265D+00 0.456D-01 0.142D+00 0.550D+00
 Coeff-En:   0.000D+00 0.000D+00 0.567D-01 0.000D+00 0.135D+00 0.809D+00
 Coeff:      0.523D-01-0.550D-01 0.247D+00 0.418D-01 0.142D+00 0.572D+00
 Gap=     0.169 Goal=   None    Shift=    0.000
 RMSDP=4.34D-03 MaxDP=9.45D-01 DE=-7.40D+00 OVMax= 2.27D-01

 Cycle   7  Pass 1  IDiag  1:
 RMSU=  1.26D-03    CP:  7.67D-01  1.69D-02  7.41D-01  4.97D-02  1.51D-01
                    CP:  2.12D-02
 E= -30613.4737871340     Delta-E=       -0.368187067084 Rises=F Damp=F
 DIIS: error= 4.97D-03 at cycle   7 NSaved=   7.
 NSaved= 7 IEnMin= 7 EnMin= -30613.4737871340     IErMin= 7 ErrMin= 4.97D-03
 ErrMax= 4.97D-03  0.00D+00 EMaxC= 1.00D-01 BMatC= 3.16D-01 BMatP= 1.00D+00
 IDIUse=3 WtCom= 9.50D-01 WtEn= 4.97D-02
 Coeff-Com: -0.439D-01 0.614D-01 0.579D-01 0.904D-02 0.311D-01 0.354D+00
 Coeff-Com:  0.530D+00
 Coeff-En:   0.000D+00 0.000D+00 0.000D+00 0.000D+00 0.000D+00 0.354D+00
 Coeff-En:   0.646D+00
 Coeff:     -0.418D-01 0.584D-01 0.550D-01 0.859D-02 0.296D-01 0.354D+00
 Coeff:      0.536D+00
 Gap=     0.123 Goal=   None    Shift=    0.000
 RMSDP=1.58D-03 MaxDP=1.99D-01 DE=-3.68D-01 OVMax= 1.52D-01

 Cycle   8  Pass 1  IDiag  1:
 RMSU=  1.08D-03    CP:  7.73D-01  5.81D-02  6.71D-01  5.37D-02  1.34D-01
                    CP:  3.18D-01  4.19D-01
 E= -30613.6258430402     Delta-E=       -0.152055906190 Rises=F Damp=F
 DIIS: error= 3.26D-03 at cycle   8 NSaved=   8.
 NSaved= 8 IEnMin= 8 EnMin= -30613.6258430402     IErMin= 8 ErrMin= 3.26D-03
 ErrMax= 3.26D-03  0.00D+00 EMaxC= 1.00D-01 BMatC= 1.65D-01 BMatP= 3.16D-01
 IDIUse=3 WtCom= 9.67D-01 WtEn= 3.26D-02
 EnCoef did     7 forward-backward iterations
 Coeff-Com: -0.555D-01 0.750D-01 0.946D-02 0.405D-02-0.432D-02 0.202D+00
 Coeff-Com:  0.414D+00 0.356D+00
 Coeff-En:   0.000D+00 0.000D+00 0.000D+00 0.000D+00 0.000D+00 0.829D-01
 Coeff-En:   0.371D+00 0.546D+00
 Coeff:     -0.536D-01 0.726D-01 0.916D-02 0.392D-02-0.418D-02 0.198D+00
 Coeff:      0.413D+00 0.362D+00
 Gap=     0.109 Goal=   None    Shift=    0.000
 RMSDP=7.95D-04 MaxDP=9.04D-02 DE=-1.52D-01 OVMax= 7.64D-02

 Cycle   9  Pass 1  IDiag  1:
 RMSU=  4.54D-04    CP:  7.63D-01  9.47D-02  6.76D-01  5.56D-02  1.53D-01
                    CP:  3.35D-01  6.75D-01  5.14D-01
 E= -30613.7837498725     Delta-E=       -0.157906832341 Rises=F Damp=F
 DIIS: error= 8.26D-04 at cycle   9 NSaved=   9.
 NSaved= 9 IEnMin= 9 EnMin= -30613.7837498725     IErMin= 9 ErrMin= 8.26D-04
 ErrMax= 8.26D-04  0.00D+00 EMaxC= 1.00D-01 BMatC= 7.54D-03 BMatP= 1.65D-01
 IDIUse=3 WtCom= 9.92D-01 WtEn= 8.26D-03
 Coeff-Com: -0.348D-01 0.469D-01 0.226D-03 0.190D-02-0.298D-02 0.959D-01
 Coeff-Com:  0.184D+00 0.210D+00 0.499D+00
 Coeff-En:   0.000D+00 0.000D+00 0.000D+00 0.000D+00 0.000D+00 0.000D+00
 Coeff-En:   0.000D+00 0.000D+00 0.100D+01
 Coeff:     -0.345D-01 0.465D-01 0.224D-03 0.188D-02-0.295D-02 0.951D-01
 Coeff:      0.182D+00 0.208D+00 0.503D+00
 Gap=     0.099 Goal=   None    Shift=    0.000
 RMSDP=2.53D-04 MaxDP=4.69D-02 DE=-1.58D-01 OVMax= 2.46D-02

 Cycle  10  Pass 1  IDiag  1:
 RMSU=  1.74D-04    CP:  7.61D-01  8.88D-02  6.96D-01  5.61D-02  1.48D-01
                    CP:  3.33D-01  6.34D-01  5.50D-01  7.20D-01
 E= -30613.7890403337     Delta-E=       -0.005290461231 Rises=F Damp=F
 DIIS: error= 6.29D-04 at cycle  10 NSaved=  10.
 NSaved=10 IEnMin=10 EnMin= -30613.7890403337     IErMin=10 ErrMin= 6.29D-04
 ErrMax= 6.29D-04  0.00D+00 EMaxC= 1.00D-01 BMatC= 2.82D-03 BMatP= 7.54D-03
 IDIUse=3 WtCom= 9.94D-01 WtEn= 6.29D-03
 Coeff-Com: -0.148D-01 0.197D-01-0.292D-02 0.380D-03-0.231D-03 0.274D-01
 Coeff-Com:  0.337D-01 0.623D-01 0.386D+00 0.488D+00
 Coeff-En:   0.000D+00 0.000D+00 0.000D+00 0.000D+00 0.000D+00 0.000D+00
 Coeff-En:   0.000D+00 0.000D+00 0.303D+00 0.697D+00
 Coeff:     -0.147D-01 0.196D-01-0.290D-02 0.378D-03-0.229D-03 0.272D-01
 Coeff:      0.335D-01 0.619D-01 0.386D+00 0.490D+00
 Gap=     0.099 Goal=   None    Shift=    0.000
 RMSDP=1.41D-04 MaxDP=3.43D-02 DE=-5.29D-03 OVMax= 1.49D-02

 Error on total polarization charges =  0.02563
 SCF Done:  E(RPBE-PBE) =  -30613.7890403     A.U. after   10 cycles
            NFock= 10  Conv=0.14D-03     -V/T= 2.0142
 KE= 3.018578963734D+04 PE=-1.033728233612D+05 EE= 2.713658403394D+04
 Leave Link  502 at Sat Nov 30 01:32:36 2019, MaxMem=   939524096 cpu:     59872.7
 (Enter /scr/programas/g09/l801.exe)
 Range of M.O.s used for correlation:     1  1975
 NBasis=  1975 NAE=   270 NBE=   270 NFC=     0 NFV=     0
 NROrb=   1975 NOA=   270 NOB=   270 NVA=  1705 NVB=  1705

 **** Warning!!: The largest alpha MO coefficient is  0.82910245D+02


 **** Warning!!: The smallest alpha delta epsilon is  0.99053271D-01

 Leave Link  801 at Sat Nov 30 01:32:37 2019, MaxMem=   939524096 cpu:         0.4
 (Enter /scr/programas/g09/l1002.exe)
 Minotr:  Closed shell wavefunction.
 NEqPCM:  Using equilibrium solvation (IEInf=0, Eps=   8.9300, EpsInf=   2.0283)
          Direct CPHF calculation.
          Differentiating once with respect to magnetic field using GIAOs.
          Electric field/nuclear overlap derivatives assumed to be zero.
          Requested convergence is 1.0D-08 RMS, and 1.0D-07 maximum.
          Secondary convergence is 1.0D-12 RMS, and 1.0D-12 maximum.
          NewPWx=T KeepS1=F KeepF1=F KeepIn=T MapXYZ=F SortEE=F KeepMc=T.
          MDV=     939521333 using IRadAn=       2.
 Defaulting to unpruned grid for atomic number  78.
 Defaulting to unpruned grid for atomic number  50.
 Generate precomputed XC quadrature information.
          Solving linear equations simultaneously, MaxMat=      72.
 FoFJK:  IHMeth= 1 ICntrl=    6127 DoSepK=F KAlg= 0 I1Cent=   0 FoldK=F
 IRaf=         1 NMat=   1 IRICut=       1 DoRegI=T DoRafI=F ISym2E= 0.
 Defaulting to unpruned grid for atomic number  78.
 Defaulting to unpruned grid for atomic number  78.
 Defaulting to unpruned grid for atomic number  78.
 Defaulting to unpruned grid for atomic number  78.
          There are     3 degrees of freedom in the 1st order CPHF.  IDoFFX=0 NUNeed=     3.
      3 vectors produced by pass  0 Test12= 1.53D-11 3.33D-08 XBig12= 2.96D+03 3.49D+00.
 AX will form     3 AO Fock derivatives at one time.
 InvSVY:  IOpt=1 It=  1 EMax= 0.00D+00
 Solved reduced A of dimension     3 with     3 vectors.
 Calculating GIAO nuclear magnetic shielding tensors.
 SCF GIAO Magnetic shielding tensor (ppm):
      1  Pt   Isotropic =  3496.8210   Anisotropy =  1052.0055
   XX=  4180.4366   YX=     7.8479   ZX=   167.5205
   XY=   151.4921   YY=  3705.1860   ZY=   -36.7452
   XZ=    30.4129   YZ=  -104.0275   ZZ=  2604.8405
   Eigenvalues:  2593.5419  3698.7632  4198.1580
      2  P    Isotropic =   249.0870   Anisotropy =    88.5224
   XX=   290.2372   YX=    24.1059   ZX=    -3.8313
   XY=    49.9265   YY=   207.0964   ZY=    -7.0554
   XZ=   -34.3151   YZ=    25.4631   ZZ=   249.9275
   Eigenvalues:   188.9976   250.1615   308.1019
      3  C    Isotropic =    -2.4393   Anisotropy =   197.4081
   XX=   -33.4867   YX=   105.6378   ZX=    21.9648
   XY=   138.3858   YY=    28.9959   ZY=    21.7964
   XZ=    23.1435   YZ=    11.1196   ZZ=    -2.8271
   Eigenvalues:  -128.6786    -7.8054   129.1661
      4  C    Isotropic =    11.3058   Anisotropy =   142.2103
   XX=    65.3745   YX=    71.5596   ZX=   -20.9580
   XY=    40.4417   YY=    10.8858   ZY=    74.5876
   XZ=    -7.3263   YZ=    66.6485   ZZ=   -42.3427
   Eigenvalues:  -103.0498    30.8546   106.1127
      5  C    Isotropic =    10.7833   Anisotropy =   164.9867
   XX=    27.7615   YX=    63.2381   ZX=    73.8493
   XY=    64.2748   YY=    58.6768   ZY=   -18.1076
   XZ=    72.5303   YZ=    10.6628   ZZ=   -54.0884
   Eigenvalues:  -105.5078    17.0833   120.7744
      6  C    Isotropic =    81.5081   Anisotropy =   258.3975
   XX=    92.5972   YX=    88.5937   ZX=    64.7083
   XY=   110.6878   YY=   166.0295   ZY=    28.5862
   XZ=    85.1072   YZ=    34.9153   ZZ=   -14.1023
   Eigenvalues:   -54.5767    45.3280   253.7731
      7  H    Isotropic =    24.4114   Anisotropy =    13.0005
   XX=    27.3623   YX=    -8.4486   ZX=    -4.0883
   XY=    -1.3659   YY=    26.3607   ZY=     2.7464
   XZ=    -2.6091   YZ=     2.2873   ZZ=    19.5113
   Eigenvalues:    18.1935    21.9623    33.0784
      8  C    Isotropic =    79.0184   Anisotropy =   256.9244
   XX=   116.6450   YX=    86.6538   ZX=    21.6338
   XY=   113.3172   YY=   153.0721   ZY=    68.4355
   XZ=     2.7240   YZ=    72.3722   ZZ=   -32.6619
   Eigenvalues:   -59.3948    46.1486   250.3013
      9  H    Isotropic =    24.5205   Anisotropy =     7.8799
   XX=    26.5596   YX=    -2.0527   ZX=     4.5713
   XY=     4.1080   YY=    29.2636   ZY=    -2.2218
   XZ=     2.7999   YZ=    -2.5164   ZZ=    17.7382
   Eigenvalues:    15.9037    27.8840    29.7738
     10  C    Isotropic =    81.9635   Anisotropy =   242.2276
   XX=    72.2737   YX=   126.6312   ZX=    31.9497
   XY=   138.4218   YY=   116.6123   ZY=    41.4089
   XZ=    31.7723   YZ=    41.5322   ZZ=    57.0046
   Eigenvalues:   -39.9957    42.4378   243.4486
     11  H    Isotropic =    26.9819   Anisotropy =     4.3483
   XX=    27.4869   YX=    -0.8660   ZX=    -0.0651
   XY=     0.6050   YY=    29.7484   ZY=     0.6246
   XZ=     1.4887   YZ=     1.1812   ZZ=    23.7106
   Eigenvalues:    23.4489    27.6161    29.8808
     12  H    Isotropic =    26.4608   Anisotropy =     4.8084
   XX=    29.6534   YX=    -1.3673   ZX=    -0.0621
   XY=     1.6705   YY=    27.5368   ZY=     2.3958
   XZ=    -0.4069   YZ=     0.9130   ZZ=    22.1921
   Eigenvalues:    21.7124    28.0035    29.6664
     13  H    Isotropic =    27.3952   Anisotropy =     7.2932
   XX=    28.2542   YX=     2.0668   ZX=    -0.4813
   XY=     5.0821   YY=    28.9927   ZY=     0.7030
   XZ=     0.6661   YZ=     0.5942   ZZ=    24.9388
   Eigenvalues:    24.5935    25.3349    32.2574
     14  C    Isotropic =    18.3771   Anisotropy =   199.2139
   XX=   110.2743   YX=   -53.8547   ZX=    -1.2180
   XY=   -77.5837   YY=    27.4477   ZY=    47.5344
   XZ=   -10.0401   YZ=    64.5161   ZZ=   -82.5907
   Eigenvalues:  -108.2084    12.1533   151.1864
     15  C    Isotropic =     9.1509   Anisotropy =   128.4534
   XX=    58.3943   YX=   -51.9481   ZX=   -51.3406
   XY=   -30.2906   YY=    22.0004   ZY=   -17.6419
   XZ=   -64.7563   YZ=   -37.3379   ZZ=   -52.9419
   Eigenvalues:   -93.1546    25.8209    94.7866
     16  C    Isotropic =    28.4595   Anisotropy =   150.4675
   XX=    66.7587   YX=   -98.2750   ZX=   -23.2740
   XY=   -79.9020   YY=   -20.7608   ZY=    15.6421
   XZ=   -12.8035   YZ=    17.6848   ZZ=    39.3807
   Eigenvalues:   -76.4445    33.0519   128.7712
     17  C    Isotropic =    58.7702   Anisotropy =   251.4518
   XX=   132.4562   YX=  -130.9269   ZX=   -27.4368
   XY=  -143.7715   YY=     4.5558   ZY=    21.9436
   XZ=   -36.5394   YZ=     6.3325   ZZ=    39.2986
   Eigenvalues:   -83.2357    33.1416   226.4047
     18  H    Isotropic =    23.6490   Anisotropy =    15.3119
   XX=    21.4416   YX=     3.8430   ZX=     0.1752
   XY=     5.1860   YY=    24.1421   ZY=    -8.5889
   XZ=    -2.4225   YZ=    -7.0561   ZZ=    25.3631
   Eigenvalues:    15.5937    21.4963    33.8569
     19  C    Isotropic =    55.2216   Anisotropy =   208.6196
   XX=   139.7256   YX=   -84.6671   ZX=   -61.9032
   XY=   -76.5477   YY=    59.0108   ZY=   -23.4205
   XZ=   -45.5796   YZ=   -28.8924   ZZ=   -33.0716
   Eigenvalues:   -69.4359    40.7994   194.3013
     20  H    Isotropic =    24.0416   Anisotropy =    12.2462
   XX=    22.2194   YX=    -0.9361   ZX=    -2.0292
   XY=    -0.9234   YY=    18.5245   ZY=    -2.7850
   XZ=    -2.0282   YZ=    -2.3306   ZZ=    31.3808
   Eigenvalues:    17.6478    22.2712    32.2057
     21  C    Isotropic =    77.8501   Anisotropy =   296.1844
   XX=   203.1740   YX=  -111.3657   ZX=   -17.6679
   XY=  -118.4023   YY=    71.7880   ZY=    67.1556
   XZ=    -6.5068   YZ=    55.1551   ZZ=   -41.4117
   Eigenvalues:   -74.0361    32.2800   275.3064
     22  H    Isotropic =    22.3553   Anisotropy =     8.9196
   XX=    18.4686   YX=     3.2940   ZX=     1.0212
   XY=     4.9983   YY=    21.2555   ZY=    -2.7832
   XZ=     0.7076   YZ=    -2.2737   ZZ=    27.3418
   Eigenvalues:    15.0923    23.6718    28.3016
     23  H    Isotropic =    23.9292   Anisotropy =     7.8288
   XX=    21.7151   YX=     1.7776   ZX=    -1.9056
   XY=     2.1064   YY=    24.2180   ZY=    -3.2507
   XZ=    -1.9143   YZ=    -2.7936   ZZ=    25.8545
   Eigenvalues:    20.6349    22.0043    29.1484
     24  H    Isotropic =    22.9411   Anisotropy =     5.4710
   XX=    20.5160   YX=     3.8384   ZX=     0.6949
   XY=     4.6570   YY=    23.5994   ZY=    -0.5938
   XZ=     0.2614   YZ=     0.2876   ZZ=    24.7081
   Eigenvalues:    17.5069    24.7280    26.5885
     25  C    Isotropic =    13.8525   Anisotropy =   190.4039
   XX=     2.7008   YX=   -39.9252   ZX=    -6.1746
   XY=   -59.4273   YY=    72.6790   ZY=   -84.1051
   XZ=    -9.2019   YZ=  -108.5171   ZZ=   -33.8222
   Eigenvalues:  -101.0645     1.8336   140.7885
     26  C    Isotropic =   -26.1311   Anisotropy =    87.1232
   XX=   -33.6059   YX=    29.2032   ZX=    47.0866
   XY=    42.7925   YY=    10.6541   ZY=   -48.8728
   XZ=    54.8180   YZ=   -24.1869   ZZ=   -55.4416
   Eigenvalues:  -117.0618     6.7175    31.9510
     27  C    Isotropic =    17.3564   Anisotropy =   125.5082
   XX=   -71.3040   YX=   -19.8269   ZX=     9.8699
   XY=   -47.2542   YY=    77.3818   ZY=   -29.4955
   XZ=     0.8386   YZ=   -29.7171   ZZ=    45.9913
   Eigenvalues:   -78.5282    29.5687   101.0285
     28  C    Isotropic =    61.0739   Anisotropy =   261.4457
   XX=   -74.1557   YX=   -66.3559   ZX=    20.9071
   XY=   -46.0054   YY=   181.9030   ZY=   -77.7543
   XZ=    41.9023   YZ=   -75.5391   ZZ=    75.4744
   Eigenvalues:   -87.5537    35.4044   235.3711
     29  H    Isotropic =    24.4517   Anisotropy =    13.3911
   XX=    25.8726   YX=     7.2928   ZX=     3.8933
   XY=     2.3772   YY=    23.0491   ZY=     2.9996
   XZ=     6.1237   YZ=     3.2662   ZZ=    24.4333
   Eigenvalues:    19.2829    20.6930    33.3791
     30  C    Isotropic =    75.7454   Anisotropy =   236.3377
   XX=    19.2006   YX=   -10.9665   ZX=    57.8420
   XY=    -8.9304   YY=   175.7003   ZY=   -95.9148
   XZ=    58.6570   YZ=  -104.3715   ZZ=    32.3353
   Eigenvalues:   -52.4148    46.3471   233.3039
     31  H    Isotropic =    23.3940   Anisotropy =    16.9393
   XX=    18.4352   YX=     1.2899   ZX=     5.3162
   XY=     1.5787   YY=    21.9070   ZY=     6.8996
   XZ=     5.3645   YZ=     4.6679   ZZ=    29.8399
   Eigenvalues:    16.1485    19.3467    34.6869
     32  C    Isotropic =    85.8688   Anisotropy =   311.4317
   XX=    17.2023   YX=   -77.2536   ZX=   -22.9607
   XY=   -59.2630   YY=   198.8183   ZY=  -137.4448
   XZ=    -1.8101   YZ=  -148.3674   ZZ=    41.5858
   Eigenvalues:   -69.1441    33.2606   293.4899
     33  H    Isotropic =    22.7728   Anisotropy =     8.5427
   XX=    23.0258   YX=     2.9824   ZX=    -0.4446
   XY=     1.6332   YY=    19.7440   ZY=     5.2421
   XZ=     0.4915   YZ=     4.2480   ZZ=    25.5486
   Eigenvalues:    16.4630    23.3875    28.4679
     34  H    Isotropic =    25.3160   Anisotropy =     6.9972
   XX=    25.0880   YX=     2.2314   ZX=     3.1459
   XY=     2.2432   YY=    25.0408   ZY=     1.7756
   XZ=     3.1727   YZ=     1.1006   ZZ=    25.8190
   Eigenvalues:    22.0217    23.9454    29.9808
     35  H    Isotropic =    24.3400   Anisotropy =     3.4986
   XX=    26.3149   YX=     1.1049   ZX=    -1.0708
   XY=     0.5994   YY=    22.6531   ZY=     1.3876
   XZ=    -0.6827   YZ=     0.8567   ZZ=    24.0521
   Eigenvalues:    21.7288    24.6189    26.6724
     36  Sn   Isotropic =  1851.2055   Anisotropy =   303.3063
   XX=  1794.8420   YX=   -79.5772   ZX=    39.0749
   XY=   -73.1349   YY=  2020.7678   ZY=   -25.0835
   XZ=   265.3583   YZ=    19.5040   ZZ=  1738.0067
   Eigenvalues:  1606.1795  1894.0273  2053.4097
     37  P    Isotropic =   248.0867   Anisotropy =   122.9010
   XX=   326.8057   YX=    19.7158   ZX=    -3.3848
   XY=    17.6862   YY=   219.4722   ZY=    -7.9802
   XZ=     3.1432   YZ=   -21.1594   ZZ=   197.9822
   Eigenvalues:   190.0872   224.1523   330.0207
     38  C    Isotropic =    16.7627   Anisotropy =   165.6087
   XX=    76.1225   YX=    89.6200   ZX=   -19.9203
   XY=    78.5759   YY=   -24.0354   ZY=    -9.1403
   XZ=   -16.3660   YZ=    -9.8239   ZZ=    -1.7991
   Eigenvalues:   -71.8434    -5.0370   127.1685
     39  C    Isotropic =    26.6458   Anisotropy =   157.8428
   XX=    89.3991   YX=    67.1105   ZX=   -43.2094
   XY=    48.2421   YY=    45.2901   ZY=    23.7646
   XZ=   -40.3433   YZ=    20.3178   ZZ=   -54.7518
   Eigenvalues:   -78.0110    26.0740   131.8743
     40  C    Isotropic =    25.6288   Anisotropy =   151.2437
   XX=    97.0054   YX=    58.3956   ZX=    -0.1075
   XY=    38.1167   YY=    34.5199   ZY=   -47.5451
   XZ=    -0.9518   YZ=   -47.2853   ZZ=   -54.6389
   Eigenvalues:   -77.3265    27.7549   126.4580
     41  C    Isotropic =    55.7855   Anisotropy =   211.0688
   XX=   147.4875   YX=    70.5403   ZX=    -9.2966
   XY=    86.1950   YY=    59.6396   ZY=   -56.2903
   XZ=     8.7105   YZ=   -47.2457   ZZ=   -39.7704
   Eigenvalues:   -67.0017    37.8603   196.4981
     42  H    Isotropic =    24.9565   Anisotropy =    13.8976
   XX=    23.8425   YX=    -5.4491   ZX=    -4.5326
   XY=    -2.3613   YY=    30.7219   ZY=     2.5106
   XZ=    -4.7466   YZ=     3.8048   ZZ=    20.3050
   Eigenvalues:    17.0950    23.5528    34.2215
     43  C    Isotropic =    51.5371   Anisotropy =   207.0997
   XX=   126.8482   YX=    75.7537   ZX=   -48.1923
   XY=    86.7984   YY=    66.2594   ZY=    20.2415
   XZ=   -67.3248   YZ=    16.8833   ZZ=   -38.4963
   Eigenvalues:   -72.1488    37.1565   189.6036
     44  H    Isotropic =    25.2408   Anisotropy =    14.6803
   XX=    25.2934   YX=    -6.6705   ZX=     3.3308
   XY=    -3.7775   YY=    30.6654   ZY=    -2.0988
   XZ=     4.6185   YZ=    -2.8574   ZZ=    19.7635
   Eigenvalues:    17.6815    23.0132    35.0276
     45  C    Isotropic =    80.5803   Anisotropy =   298.4202
   XX=   165.7117   YX=   139.9977   ZX=   -27.2040
   XY=   180.3663   YY=    39.0252   ZY=   -20.2320
   XZ=   -34.2039   YZ=   -12.1487   ZZ=    37.0040
   Eigenvalues:   -70.0282    32.2419   279.5271
     46  H    Isotropic =    23.8781   Anisotropy =     8.1196
   XX=    22.9820   YX=    -4.6536   ZX=     0.2551
   XY=    -4.8226   YY=    25.6361   ZY=    -0.7647
   XZ=    -0.2326   YZ=    -0.7765   ZZ=    23.0160
   Eigenvalues:    19.3315    23.0116    29.2911
     47  H    Isotropic =    23.4836   Anisotropy =     8.5399
   XX=    22.2890   YX=    -4.7553   ZX=     0.6628
   XY=    -5.1597   YY=    25.4712   ZY=     1.3472
   XZ=     1.3738   YZ=     1.9858   ZZ=    22.6907
   Eigenvalues:    17.9753    23.2986    29.1769
     48  H    Isotropic =    22.9900   Anisotropy =     4.6536
   XX=    21.0324   YX=    -3.9757   ZX=     1.0525
   XY=    -4.6908   YY=    22.1073   ZY=     0.6961
   XZ=     1.1046   YZ=     0.9631   ZZ=    25.8303
   Eigenvalues:    16.9948    25.8828    26.0924
     49  C    Isotropic =    14.6272   Anisotropy =   155.6962
   XX=    12.0091   YX=   -26.6925   ZX=     5.5668
   XY=   -39.7674   YY=    93.3837   ZY=    39.9085
   XZ=    10.5271   YZ=    67.6789   ZZ=   -61.5111
   Eigenvalues:   -81.8311     7.2880   118.4246
     50  C    Isotropic =     5.7061   Anisotropy =   109.1669
   XX=   -29.5002   YX=   -12.8744   ZX=   -52.4483
   XY=    30.4279   YY=    70.5229   ZY=    25.0987
   XZ=   -58.9696   YZ=    30.1646   ZZ=   -23.9046
   Eigenvalues:   -86.6320    25.2662    78.4840
     51  C    Isotropic =    22.4663   Anisotropy =   141.0541
   XX=   -66.6746   YX=   -52.2388   ZX=    -6.7700
   XY=   -34.5724   YY=    91.7986   ZY=    37.4154
   XZ=     6.4374   YZ=    27.9347   ZZ=    42.2750
   Eigenvalues:   -78.3325    29.2291   116.5024
     52  C    Isotropic =    50.1586   Anisotropy =   224.5010
   XX=   -74.5796   YX=   -48.8145   ZX=     7.0512
   XY=   -53.2481   YY=   176.7111   ZY=    40.9319
   XZ=   -11.1371   YZ=    49.1632   ZZ=    48.3443
   Eigenvalues:   -84.8967    35.5466   199.8259
     53  H    Isotropic =    22.0465   Anisotropy =    12.4695
   XX=    25.8926   YX=     3.8182   ZX=    -4.5763
   XY=     2.7399   YY=    17.4749   ZY=    -1.4518
   XZ=    -4.0676   YZ=    -4.1501   ZZ=    22.7718
   Eigenvalues:    16.0041    19.7758    30.3594
     54  C    Isotropic =    60.7389   Anisotropy =   203.0050
   XX=    12.1652   YX=   -31.3267   ZX=   -58.6316
   XY=   -21.6963   YY=   174.5744   ZY=    55.7121
   XZ=   -56.0688   YZ=    41.4244   ZZ=    -4.5230
   Eigenvalues:   -55.9426    42.0837   196.0755
     55  H    Isotropic =    23.5193   Anisotropy =    15.4908
   XX=    18.5110   YX=    -1.4788   ZX=    -5.0380
   XY=    -1.1484   YY=    20.4482   ZY=    -3.0159
   XZ=    -5.6029   YZ=    -2.5179   ZZ=    31.5985
   Eigenvalues:    15.5998    21.1115    33.8464
     56  C    Isotropic =    73.6034   Anisotropy =   274.7390
   XX=    25.6840   YX=   -54.2890   ZX=    26.2592
   XY=   -58.7758   YY=   221.0022   ZY=    85.7425
   XZ=    11.1831   YZ=    80.4530   ZZ=   -25.8761
   Eigenvalues:   -65.4162    29.4636   256.7627
     57  H    Isotropic =    22.1048   Anisotropy =     7.5771
   XX=    23.7320   YX=     0.5084   ZX=    -0.6624
   XY=     1.8775   YY=    16.6263   ZY=    -3.0330
   XZ=    -0.4239   YZ=    -3.3018   ZZ=    25.9562
   Eigenvalues:    15.5344    23.6238    27.1562
     58  H    Isotropic =    24.5806   Anisotropy =     8.1478
   XX=    24.7624   YX=     0.5216   ZX=    -4.0986
   XY=     0.6953   YY=    22.4061   ZY=    -0.3002
   XZ=    -4.1994   YZ=    -0.9363   ZZ=    26.5734
   Eigenvalues:    21.4130    22.3163    30.0125
     59  H    Isotropic =    23.0366   Anisotropy =     5.7024
   XX=    26.6995   YX=     0.7040   ZX=    -0.0056
   XY=     1.2543   YY=    18.6654   ZY=    -1.6672
   XZ=    -0.1818   YZ=    -0.9230   ZZ=    23.7449
   Eigenvalues:    18.2516    24.0200    26.8382
     60  C    Isotropic =    17.7519   Anisotropy =   166.2093
   XX=    30.8435   YX=   -49.2005   ZX=     0.3922
   XY=   -55.2720   YY=    86.4284   ZY=   -48.0845
   XZ=     1.9226   YZ=   -55.2796   ZZ=   -64.0162
   Eigenvalues:   -82.1419     6.8395   128.5581
     61  C    Isotropic =     1.6379   Anisotropy =    93.5658
   XX=   -13.8854   YX=   -36.7296   ZX=    60.5558
   XY=    11.7757   YY=    47.2500   ZY=   -13.8376
   XZ=    64.3241   YZ=   -16.2162   ZZ=   -28.4508
   Eigenvalues:   -84.0982    24.9968    64.0151
     62  C    Isotropic =    29.4245   Anisotropy =   152.1422
   XX=   -33.7569   YX=   -86.5502   ZX=    18.7788
   XY=   -66.7069   YY=    75.8465   ZY=   -41.6990
   XZ=     7.8676   YZ=   -26.2996   ZZ=    46.1839
   Eigenvalues:   -73.2850    30.7058   130.8526
     63  C    Isotropic =    47.9456   Anisotropy =   217.2774
   XX=   -46.3404   YX=   -92.0493   ZX=     3.6070
   XY=   -87.0196   YY=   146.1085   ZY=   -35.1385
   XZ=    17.8615   YZ=   -45.1840   ZZ=    44.0687
   Eigenvalues:   -81.7383    32.7779   192.7972
     64  H    Isotropic =    21.3254   Anisotropy =    13.1780
   XX=    24.7126   YX=     3.5850   ZX=     2.7192
   XY=     4.8389   YY=    16.0778   ZY=     4.6710
   XZ=     3.6932   YZ=     5.0163   ZZ=    23.1858
   Eigenvalues:    13.0817    20.7838    30.1107
     65  C    Isotropic =    54.7262   Anisotropy =   201.2133
   XX=    37.1001   YX=   -64.4086   ZX=    65.6828
   XY=   -61.1970   YY=   148.1661   ZY=   -28.6788
   XZ=    63.0596   YZ=   -21.7304   ZZ=   -21.0877
   Eigenvalues:   -63.5526    38.8628   188.8684
     66  H    Isotropic =    23.6135   Anisotropy =    15.6315
   XX=    20.5653   YX=    -0.2569   ZX=     5.0479
   XY=    -0.6857   YY=    18.3418   ZY=     2.7982
   XZ=     4.7983   YZ=     1.8951   ZZ=    31.9335
   Eigenvalues:    17.1106    19.6954    34.0345
     67  C    Isotropic =    69.3594   Anisotropy =   277.6939
   XX=    48.8370   YX=   -93.4710   ZX=   -18.7100
   XY=   -90.3736   YY=   198.9854   ZY=   -70.0352
   XZ=    -7.3797   YZ=   -71.6983   ZZ=   -39.7442
   Eigenvalues:   -73.2169    26.8064   254.4887
     68  H    Isotropic =    22.0994   Anisotropy =     7.1529
   XX=    23.1545   YX=     1.0163   ZX=     0.2338
   XY=     3.3369   YY=    17.2490   ZY=     2.9666
   XZ=    -0.0519   YZ=     2.6198   ZZ=    25.8947
   Eigenvalues:    15.8402    23.5899    26.8680
     69  H    Isotropic =    24.0372   Anisotropy =     7.7196
   XX=    24.3227   YX=     1.9198   ZX=     3.4658
   XY=     1.3269   YY=    21.7379   ZY=     0.9536
   XZ=     3.4088   YZ=     1.1535   ZZ=    26.0511
   Eigenvalues:    20.8254    22.1027    29.1837
     70  H    Isotropic =    22.4953   Anisotropy =     5.9531
   XX=    25.5772   YX=     2.3009   ZX=    -0.4170
   XY=     3.1811   YY=    17.9849   ZY=     1.6826
   XZ=    -0.0785   YZ=     0.1331   ZZ=    23.9239
   Eigenvalues:    16.9717    24.0502    26.4641
     71  Br   Isotropic =  2351.3918   Anisotropy =   490.6052
   XX=  2095.0057   YX=    55.8717   ZX=   -65.8550
   XY=    77.5484   YY=  2314.1858   ZY=    57.1338
   XZ=  -162.9937   YZ=    94.5173   ZZ=  2644.9838
   Eigenvalues:  2047.4335  2328.2799  2678.4619
     72  Br   Isotropic =  2574.6816   Anisotropy =   328.6273
   XX=  2517.7387   YX=    43.8381   ZX=    99.8817
   XY=    47.7644   YY=  2501.5529   ZY=  -152.1506
   XZ=    55.0920   YZ=  -150.2835   ZZ=  2704.7533
   Eigenvalues:  2377.2506  2553.0279  2793.7665
     73  C    Isotropic =   143.0607   Anisotropy =    21.9973
   XX=   142.3275   YX=     9.8396   ZX=    -4.9067
   XY=    13.2477   YY=   148.3669   ZY=    11.3207
   XZ=    -0.6190   YZ=     0.0896   ZZ=   138.4876
   Eigenvalues:   129.6498   141.8067   157.7255
     74  H    Isotropic =    31.9122   Anisotropy =     7.0106
   XX=    33.7594   YX=    -1.3563   ZX=     2.4284
   XY=    -1.2600   YY=    35.9471   ZY=    -0.3639
   XZ=     2.3006   YZ=     1.4813   ZZ=    26.0302
   Eigenvalues:    25.2885    33.8621    36.5860
[...]
 Alpha virt. eigenvalues --    1.95925   1.96083   1.96544   1.96780   1.97218
 Alpha virt. eigenvalues --    1.97640   1.98079   1.98507   1.98728   1.98928
 Alpha virt. eigenvalues --    1.99041   1.99402   2.00426   2.00775   2.00952
 Alpha virt. eigenvalues --    2.01097   2.01282   2.01896   2.02394   2.02705
 Alpha virt. eigenvalues --    2.02953   2.03183   2.03403   2.03822   2.03872
 Alpha virt. eigenvalues --    2.04057   2.04330   2.04537   2.04871   2.04967
 Alpha virt. eigenvalues --    2.05486   2.05774   2.05924   2.06201   2.06496
 Alpha virt. eigenvalues --    2.07239   2.07515   2.07631   2.07792   2.08094
 Alpha virt. eigenvalues --    2.08272   2.08463   2.08960   2.09434   2.10025
 Alpha virt. eigenvalues --    2.10100   2.10743   2.11081   2.11234   2.11521
 Alpha virt. eigenvalues --    2.11988   2.12344   2.12745   2.12896   2.13327
 Alpha virt. eigenvalues --    2.14069   2.14161   2.14469   2.14906   2.15376
 Alpha virt. eigenvalues --    2.15690   2.15859   2.16121   2.16310   2.16847
 Alpha virt. eigenvalues --    2.17015   2.17262   2.17548   2.17792   2.18141
 Alpha virt. eigenvalues --    2.18555   2.18717   2.19396   2.19526   2.20003
 Alpha virt. eigenvalues --    2.20171   2.20517   2.20807   2.20903   2.21301
 Alpha virt. eigenvalues --    2.21946   2.22461   2.22628   2.22948   2.23336
 Alpha virt. eigenvalues --    2.24327   2.24583   2.24654   2.25161   2.26019
 Alpha virt. eigenvalues --    2.26430   2.26922   2.27095   2.27769   2.28040
 Alpha virt. eigenvalues --    2.28831   2.29103   2.29512   2.30094   2.30287
 Alpha virt. eigenvalues --    2.30501   2.30589   2.30909   2.31538   2.31869
 Alpha virt. eigenvalues --    2.31912   2.32283   2.33076   2.33135   2.33366
 Alpha virt. eigenvalues --    2.33734   2.33996   2.34386   2.34775   2.35159
 Alpha virt. eigenvalues --    2.35324   2.35740   2.36036   2.36094   2.36546
 Alpha virt. eigenvalues --    2.36829   2.37047   2.37281   2.37763   2.37969
 Alpha virt. eigenvalues --    2.38268   2.38633   2.39171   2.39300   2.39503
 Alpha virt. eigenvalues --    2.40013   2.40085   2.40815   2.41032   2.41381
 Alpha virt. eigenvalues --    2.41561   2.41726   2.42036   2.42174   2.42511
 Alpha virt. eigenvalues --    2.42929   2.43506   2.43965   2.44427   2.44852
 Alpha virt. eigenvalues --    2.45334   2.45524   2.45683   2.46114   2.46623
 Alpha virt. eigenvalues --    2.47235   2.47364   2.47725   2.48166   2.48561
 Alpha virt. eigenvalues --    2.49338   2.49621   2.49865   2.50215   2.50438
 Alpha virt. eigenvalues --    2.50943   2.51223   2.51475   2.51740   2.52037
 Alpha virt. eigenvalues --    2.52776   2.53613   2.54309   2.54586   2.55244
 Alpha virt. eigenvalues --    2.55839   2.55911   2.56235   2.56514   2.56975
 Alpha virt. eigenvalues --    2.57684   2.57996   2.58346   2.58787   2.58904
 Alpha virt. eigenvalues --    2.59507   2.59946   2.60178   2.60527   2.60958
 Alpha virt. eigenvalues --    2.61195   2.61385   2.61641   2.61990   2.62234
 Alpha virt. eigenvalues --    2.62696   2.63486   2.63636   2.64278   2.64527
 Alpha virt. eigenvalues --    2.64784   2.65460   2.65810   2.66125   2.67069
 Alpha virt. eigenvalues --    2.67525   2.67765   2.68124   2.68379   2.68887
 Alpha virt. eigenvalues --    2.69320   2.69664   2.69748   2.70055   2.70566
 Alpha virt. eigenvalues --    2.71882   2.72080   2.72250   2.72675   2.72810
 Alpha virt. eigenvalues --    2.73391   2.73802   2.73895   2.74065   2.74194
 Alpha virt. eigenvalues --    2.74252   2.74789   2.75234   2.75699   2.75812
 Alpha virt. eigenvalues --    2.76128   2.76448   2.76867   2.77129   2.77795
 Alpha virt. eigenvalues --    2.78126   2.78210   2.78809   2.79199   2.80452
 Alpha virt. eigenvalues --    2.80935   2.81002   2.81814   2.82539   2.83440
 Alpha virt. eigenvalues --    2.83740   2.84146   2.84456   2.84657   2.85363
 Alpha virt. eigenvalues --    2.85695   2.85978   2.87002   2.87336   2.87585
 Alpha virt. eigenvalues --    2.87983   2.89163   2.89511   2.89900   2.90557
 Alpha virt. eigenvalues --    2.91308   2.91752   2.91828   2.92203   2.92892
 Alpha virt. eigenvalues --    2.93083   2.93680   2.93973   2.94598   2.94983
 Alpha virt. eigenvalues --    2.95868   2.95972   2.96373   2.96519   2.96706
 Alpha virt. eigenvalues --    2.97573   2.98146   2.98904   2.98992   2.99470
 Alpha virt. eigenvalues --    3.00055   3.00373   3.00552   3.00875   3.01225
 Alpha virt. eigenvalues --    3.01940   3.02050   3.03265   3.03604   3.04048
 Alpha virt. eigenvalues --    3.04450   3.05524   3.06614   3.07716   3.08555
 Alpha virt. eigenvalues --    3.09125   3.09726   3.10595   3.11670   3.12037
 Alpha virt. eigenvalues --    3.12596   3.13063   3.13450   3.13675   3.14337
 Alpha virt. eigenvalues --    3.14541   3.14838   3.15054   3.15726   3.16148
 Alpha virt. eigenvalues --    3.16219   3.16842   3.17130   3.17224   3.17820
 Alpha virt. eigenvalues --    3.18406   3.19417   3.19875   3.20423   3.21116
 Alpha virt. eigenvalues --    3.21500   3.22489   3.22577   3.23055   3.23403
 Alpha virt. eigenvalues --    3.23976   3.24707   3.25498   3.25696   3.26077
 Alpha virt. eigenvalues --    3.26275   3.27106   3.27730   3.28286   3.28976
 Alpha virt. eigenvalues --    3.29600   3.31023   3.32264   3.32407   3.33562
 Alpha virt. eigenvalues --    3.34030   3.34599   3.35087   3.36067   3.37405
 Alpha virt. eigenvalues --    3.37753   3.38857   3.41302   3.45718   3.45923
 Alpha virt. eigenvalues --    3.46710   3.47234   3.47449   3.47794   3.48190
 Alpha virt. eigenvalues --    3.48368   3.49113   3.49968   3.51590   3.51993
 Alpha virt. eigenvalues --    3.52255   3.52488   3.53371   3.53651   3.54423
 Alpha virt. eigenvalues --    3.55636   3.59899   3.68354   3.71986   3.78721
 Alpha virt. eigenvalues --    3.92380   3.93941   3.97832   4.00920   4.06994
 Alpha virt. eigenvalues --    4.07637   4.14154   4.14635   4.15050   4.15988
 Alpha virt. eigenvalues --    4.16600   4.17536   4.19314   4.19706   4.20269
 Alpha virt. eigenvalues --    4.21166   4.23937   4.24059   4.24535   4.25047
 Alpha virt. eigenvalues --    4.26035   4.26327   4.27388   4.28375   4.29215
 Alpha virt. eigenvalues --    4.29489   4.30837   4.31050   4.32242   4.32535
 Alpha virt. eigenvalues --    4.34176   4.34659   4.35716   4.36323   4.37144
 Alpha virt. eigenvalues --    4.37327   4.37814   4.38850   4.39016   4.39789
 Alpha virt. eigenvalues --    4.40244   4.41053   4.41234   4.41703   4.42100
 Alpha virt. eigenvalues --    4.42414   4.42537   4.43124   4.43926   4.44609
 Alpha virt. eigenvalues --    4.44773   4.45124   4.45626   4.46579   4.47407
 Alpha virt. eigenvalues --    4.48050   4.49797   4.52534   4.53555   4.55091
 Alpha virt. eigenvalues --    4.57391   4.57823   4.59543   4.65191   4.66758
 Alpha virt. eigenvalues --    4.77622   4.78353   4.78459   4.78892   4.79408
 Alpha virt. eigenvalues --    4.79670   4.80206   5.70673   5.86559   5.92239
 Alpha virt. eigenvalues --    5.95293   5.97849   6.00622   6.01608   6.04659
 Alpha virt. eigenvalues --    6.09250   6.11024   6.12565   6.13314   6.20147
 Alpha virt. eigenvalues --    6.23549   6.33344   6.33999   6.63313   6.63741
 Alpha virt. eigenvalues --    6.64762   6.67260   6.67945   6.69561   6.70399
 Alpha virt. eigenvalues --    6.71628   6.72081   6.72267   6.78210   6.79137
 Alpha virt. eigenvalues --    6.79376   6.80022   6.81214   6.82884   6.85534
 Alpha virt. eigenvalues --    6.89075   6.89164   6.89898   6.91067   6.91862
 Alpha virt. eigenvalues --    6.92398   6.93907   6.94854   6.95234   6.95691
 Alpha virt. eigenvalues --    6.96427   6.97500   6.98411   7.00712   7.02170
 Alpha virt. eigenvalues --    7.02782   7.03860   7.04084   7.05284   7.06258
 Alpha virt. eigenvalues --    7.07907   7.08922   7.09539   7.10398   7.10444
 Alpha virt. eigenvalues --    7.12297   7.12491   7.15959   7.19711   7.22862
 Alpha virt. eigenvalues --    7.24491   7.25142   7.25479   7.28018   7.29143
 Alpha virt. eigenvalues --    7.30011   7.73622   7.78054   7.79493   7.80506
 Alpha virt. eigenvalues --    7.83755   7.88149   8.50253   8.51142   8.51321
 Alpha virt. eigenvalues --    8.52080   8.52243   8.53630   8.54018   8.57100
 Alpha virt. eigenvalues --    8.64431   9.10262   9.96859  10.10174  10.10791
 Alpha virt. eigenvalues --   10.16567  10.30672  14.18654  14.25700  14.29382
 Alpha virt. eigenvalues --   14.40415  15.95091  16.96906  17.01872  17.03152
 Alpha virt. eigenvalues --   17.03886  17.04337  17.04891  17.05599  17.05916
 Alpha virt. eigenvalues --   17.06661  17.06949  17.07972  17.08271  17.08963
 Alpha virt. eigenvalues --   17.10564  17.11444  17.12555  17.13862  17.15247
 Alpha virt. eigenvalues --   17.15362  17.16019  17.17004  17.17412  17.18193
 Alpha virt. eigenvalues --   17.19642  17.20260  17.22056  17.23889  17.26092
 Alpha virt. eigenvalues --   17.27689  17.29318  17.30462  17.31196  17.32081
 Alpha virt. eigenvalues --   17.33454  17.33705  17.33829  17.34475  17.34782
 Alpha virt. eigenvalues --   17.35892  17.36547  17.37928  17.40706  17.42381
 Alpha virt. eigenvalues --   17.47128  20.36225  20.39147  20.39735  20.44658
 Alpha virt. eigenvalues --   20.50891  20.52893  21.14495  21.24702  21.40616
 Alpha virt. eigenvalues --   25.65143  25.78107  25.87808  26.24980  31.80452
 Alpha virt. eigenvalues --   31.84101  31.84792  31.88573  31.91389  42.97984
 Alpha virt. eigenvalues --   43.06196  43.06865  43.10787  43.19083  61.89358
 Alpha virt. eigenvalues --   61.94759  63.28695  65.31848  65.42345  82.28513
 Alpha virt. eigenvalues --   86.24240  86.32383  86.45447  89.20652  89.26644
 Alpha virt. eigenvalues --   89.29651  89.30198  89.30620  89.31137  89.31458
 Alpha virt. eigenvalues --   89.32589  89.32764  89.33211  89.34212  89.34739
 Alpha virt. eigenvalues --   89.35125  89.36600  89.37168  89.38567  89.39945
 Alpha virt. eigenvalues --   89.40812  89.41214  89.41455  89.42472  89.43456
 Alpha virt. eigenvalues --   89.43979  89.44590  89.45401  89.48122  89.50196
 Alpha virt. eigenvalues --   89.52417  89.54079  89.55684  89.56570  89.56772
 Alpha virt. eigenvalues --   89.58519  89.61289  89.61388  89.61509  89.61612
 Alpha virt. eigenvalues --   89.62359  89.63471  89.64097  89.65244  89.66705
 Alpha virt. eigenvalues --   89.68164  89.72637 112.78502 112.80524 112.81965
 Alpha virt. eigenvalues --  112.84201 112.89960 112.91184 121.96019 122.05720
 Alpha virt. eigenvalues --  122.12514 239.43914 257.38818 282.63303 282.73073
 Alpha virt. eigenvalues --  332.22495 332.28131 428.82709 428.89104 428.99371
 Alpha virt. eigenvalues --  590.31207 590.38736 590.44032 773.05883 839.81506
 Alpha virt. eigenvalues -- 1043.776231043.865752068.654242530.171885495.45056
 Alpha virt. eigenvalues -- 5634.690785634.79986******************************
          Condensed to atoms (all electrons):
 Mulliken charges:
               1
     1  Pt  -0.067958
     2  P    1.090979
     3  C   -1.026494
     4  C    0.324448
     5  C    0.590117
     6  C   -0.118751
     7  H    0.080088
     8  C   -0.023336
     9  H    0.104289
    10  C   -0.587180
    11  H    0.126170
    12  H    0.123771
    13  H    0.142267
    14  C   -0.816809
    15  C    0.216171
    16  C    0.684128
    17  C   -0.286648
    18  H    0.092903
    19  C   -0.015983
    20  H    0.056450
    21  C   -0.576680
    22  H    0.143132
    23  H    0.143466
    24  H    0.154350
    25  C   -0.656158
    26  C    0.403132
    27  C    0.217892
    28  C    0.082323
    29  H    0.095220
    30  C   -0.294118
    31  H    0.116091
    32  C   -0.660510
    33  H    0.143773
    34  H    0.144494
    35  H    0.153627
    36  Sn  -0.446857
    37  P    1.623158
    38  C   -1.008624
    39  C    0.425462
    40  C    0.327722
    41  C   -0.083905
    42  H    0.100273
    43  C   -0.152537
    44  H    0.107032
    45  C   -0.550259
    46  H    0.147811
    47  H    0.145089
    48  H    0.151696
    49  C   -0.794551
    50  C    0.225331
    51  C    0.301955
    52  C   -0.008007
    53  H    0.084935
    54  C   -0.043836
    55  H    0.045977
    56  C   -0.547769
    57  H    0.143164
    58  H    0.137029
    59  H    0.149479
    60  C   -0.537054
    61  C    0.036514
    62  C    0.331493
    63  C   -0.070039
    64  H    0.069764
    65  C   -0.080001
    66  H    0.065654
    67  C   -0.564891
    68  H    0.140194
    69  H    0.139959
    70  H    0.145920
    71  Br  -0.483587
    72  Br  -0.342105
    73  C    0.003997
    74  H    0.008684
    75  H    0.052030
    76  C   -0.206996
    77  H    0.070258
    78  H    0.050814
    79  C    0.145512
    80  H    0.067448
    81  H   -0.008497
    82  C   -0.199765
    83  H    0.100229
    84  H    0.074054
    85  C   -0.311372
    86  H    0.141654
    87  H    0.119482
    88  H    0.139923
    89  C   -0.228354
    90  H    0.106970
    91  H    0.077206
    92  C    0.015880
    93  H    0.054991
    94  H    0.044055
    95  C   -0.378206
    96  H    0.141661
    97  H    0.143905
    98  H    0.144192
 Sum of Mulliken charges =   0.00000
 Mulliken charges with hydrogens summed into heavy atoms:
               1
     1  Pt  -0.067958
     2  P    1.090979
     3  C   -1.026494
     4  C    0.404535
     5  C    0.694406
     6  C    0.007419
     8  C    0.100435
    10  C   -0.444913
    14  C   -0.816809
    15  C    0.309074
    16  C    0.740578
    17  C   -0.143517
    19  C    0.127483
    21  C   -0.422330
    25  C   -0.656158
    26  C    0.498352
    27  C    0.333983
    28  C    0.226097
    30  C   -0.149624
    32  C   -0.506882
    36  Sn  -0.446857
    37  P    1.623158
    38  C   -1.008624
    39  C    0.525735
    40  C    0.434755
    41  C    0.063906
    43  C   -0.007448
    45  C   -0.398564
    49  C   -0.794551
    50  C    0.310266
    51  C    0.347932
    52  C    0.135157
    54  C    0.093193
    56  C   -0.398290
    60  C   -0.537054
    61  C    0.106278
    62  C    0.397147
    63  C    0.070155
    65  C    0.059957
    67  C   -0.418971
    71  Br  -0.483587
    72  Br  -0.342105
    73  C    0.064711
    76  C   -0.085924
    79  C    0.204464
    82  C   -0.025482
    85  C    0.089688
    89  C   -0.044178
    92  C    0.114926
    95  C    0.051552
 Electronic spatial extent (au):  <R**2>=          36134.1842
 Charge=              0.0000 electrons
 Dipole moment (field-independent basis, Debye):
    X=              2.6915    Y=              1.8843    Z=              4.1412  Tot=              5.2862
 Quadrupole moment (field-independent basis, Debye-Ang):
   XX=           -326.7683   YY=           -404.5719   ZZ=           -348.8125
   XY=             14.0711   XZ=             -4.9019   YZ=             13.0016
 Traceless Quadrupole moment (field-independent basis, Debye-Ang):
   XX=             33.2826   YY=            -44.5210   ZZ=             11.2384
   XY=             14.0711   XZ=             -4.9019   YZ=             13.0016
 Octapole moment (field-independent basis, Debye-Ang**2):
  XXX=             42.3925  YYY=            -33.1285  ZZZ=            -27.4039  XYY=            -14.9450
  XXY=            -41.1011  XXZ=            -30.1066  XZZ=             37.1369  YZZ=            -63.0902
  YYZ=             -4.6981  XYZ=            -12.5965
 Hexadecapole moment (field-independent basis, Debye-Ang**3):
 XXXX=         -20400.2002 YYYY=         -18239.8538 ZZZZ=          -8312.6574 XXXY=             -3.4898
 XXXZ=            148.0540 YYYX=           -216.6407 YYYZ=           -147.2549 ZZZX=              1.2122
 ZZZY=           -151.3914 XXYY=          -5996.0918 XXZZ=          -4695.0038 YYZZ=          -4283.0138
 XXYZ=             13.9210 YYXZ=             -1.8685 ZZXY=            260.3207
 N-N= 1.543666064956D+04 E-N=-1.033717368903D+05  KE= 3.018578963734D+04
 Calculating spin-rotation constants.
 Leave Link  601 at Sat Nov 30 11:29:56 2019, MaxMem=   939524096 cpu:      1675.0
 (Enter /scr/programas/g09/l9999.exe)
 1\1\GINC-NQTCM\SP\RPBEPBE\Gen\C44H48Br2P2Pt1Sn1\NQTCM\30-Nov-2019\0\\#
 PBEPBE/gen scf=(maxcycle=500,conver=3) NMR=GIAO Scrf=(solvent=Dichloro
 methane)\\estrutura 109\\0,1\Pt,0,0.112404,-0.808526,-0.03615\P,0,-2.2
 56634,-1.173829,0.151564\C,0,-3.556464,0.154858,0.293544\C,0,-4.283498
 ,0.390838,1.473465\C,0,-3.901255,0.869835,-0.867539\C,0,-5.339979,1.31
 0917,1.486772\H,0,-4.048639,-0.154859,2.387918\C,0,-4.954708,1.787826,
 -0.851086\H,0,-3.348845,0.708184,-1.795026\C,0,-5.683596,2.006383,0.32
 4267\H,0,-5.90204,1.47289,2.411549\H,0,-5.206148,2.333351,-1.764157\H,
 0,-6.513815,2.71882,0.335376\C,0,-2.515754,-2.149417,1.699436\C,0,-3.2
 14296,-3.364598,1.740517\C,0,-1.968337,-1.639722,2.889935\C,0,-3.37134
 2,-4.049028,2.950144\H,0,-3.625881,-3.79648,0.828808\C,0,-2.135425,-2.
 319121,4.098393\H,0,-1.403784,-0.705074,2.874715\C,0,-2.837887,-3.5287
 06,4.131847\H,0,-3.910732,-4.999117,2.964191\H,0,-1.707849,-1.90707,5.
 015342\H,0,-2.961437,-4.066681,5.075201\C,0,-2.982488,-2.137014,-1.249
 275\C,0,-4.363244,-2.412807,-1.27066\C,0,-2.190926,-2.549391,-2.332366
 \C,0,-4.930301,-3.11364,-2.335856\H,0,-5.007072,-2.070545,-0.457416\C,
 0,-2.764496,-3.241218,-3.404897\H,0,-1.12398,-2.331315,-2.3346\C,0,-4.
 130111,-3.532968,-3.405285\H,0,-6.003372,-3.324912,-2.33393\H,0,-2.135
 044,-3.556378,-4.240999\H,0,-4.574256,-4.079083,-4.24054\Sn,0,-0.00445
 5,1.86941,-0.075055\P,0,2.492633,-0.673479,-0.056567\C,0,3.481367,-2.2
 41496,-0.017008\C,0,3.714689,-2.940221,-1.215074\C,0,4.004244,-2.75197
 6,1.181592\C,0,4.465697,-4.117028,-1.213861\H,0,3.313244,-2.565485,-2.
 158768\C,0,4.75772,-3.930838,1.179165\H,0,3.834331,-2.232035,2.125812\
 C,0,4.991448,-4.615031,-0.016987\H,0,4.642057,-4.645673,-2.154565\H,0,
 5.165553,-4.312184,2.118506\H,0,5.585741,-5.532132,-0.017919\C,0,3.144
 18,0.099336,-1.607724\C,0,4.500472,0.432817,-1.800063\C,0,2.257596,0.2
 39031,-2.688265\C,0,4.93702,0.944067,-3.024905\H,0,5.236779,0.286367,-
 1.008211\C,0,2.703095,0.728168,-3.921726\H,0,1.206318,-0.038214,-2.565
 034\C,0,4.040169,1.093891,-4.08846\H,0,5.99098,1.20585,-3.151394\H,0,1
 .998078,0.819743,-4.754126\H,0,4.386646,1.486491,-5.047751\C,0,3.08720
 1,0.200846,1.466505\C,0,4.348643,0.808654,1.588678\C,0,2.248186,0.1594
 28,2.596388\C,0,4.74848,1.378891,2.799904\H,0,5.033268,0.842562,0.7434
 15\C,0,2.652899,0.719217,3.813206\H,0,1.271475,-0.32588,2.526348\C,0,3
 .902544,1.336311,3.914709\H,0,5.732069,1.84968,2.869564\H,0,1.986827,0
 .668289,4.681216\H,0,4.219997,1.777169,4.862975\Br,0,0.273383,-3.45300
 6,0.071695\Br,0,-1.175142,2.624727,-2.334335\C,0,1.86037,3.008892,-0.4
 97029\H,0,2.67995,2.438982,-0.038458\H,0,1.953248,2.881529,-1.584491\C
 ,0,-1.192445,2.738353,1.585825\H,0,-0.440652,3.218371,2.233805\H,0,-1.
 565206,1.856993,2.128638\C,0,-2.346156,3.694239,1.272341\H,0,-2.947009
 ,3.824344,2.193777\H,0,-3.029219,3.22622,0.547613\C,0,-1.95407,5.08149
 2,0.758694\H,0,-1.307032,5.574123,1.50786\H,0,-1.346033,4.982004,-0.15
 6647\C,0,-3.166146,5.970174,0.473145\H,0,-2.868163,6.971446,0.12182\H,
 0,-3.810298,5.523381,-0.303647\H,0,-3.784813,6.102584,1.377631\C,0,1.9
 99966,4.490482,-0.135419\H,0,2.93541,4.850606,-0.611407\H,0,1.193365,5
 .08906,-0.598156\C,0,2.079282,4.807133,1.36589\H,0,1.065035,4.791304,1
 .804519\H,0,2.644622,4.007622,1.880064\C,0,2.732974,6.161481,1.663056\
 H,0,2.211747,6.991617,1.149988\H,0,2.723254,6.384974,2.742976\H,0,3.78
 6242,6.176485,1.323917\\Version=EM64L-G09RevD.01\State=1-A\HF=-30613.7
 890403\RMSD=1.408e-04\Dipole=1.0589007,0.7413584,1.6292545\Quadrupole=
 24.7448163,-33.1002834,8.3554671,10.4615164,-3.6444714,9.6663856\PG=C0
 1 [X(C44H48Br2P2Pt1Sn1)]\\@


 EVERYTHING'S GOT A MORAL, IF ONLY YOU CAN FIND IT.

                                    -- LEWIS CARROL, ALICE IN WONDERLAND
 Job cpu time:       2 days  7 hours 27 minutes 10.7 seconds.
 File lengths (MBytes):  RWF=   2971 Int=      0 D2E=      0 Chk=    212 Scr=      1
 Normal termination of Gaussian 09 at Sat Nov 30 11:29:57 2019.
