 Entering Gaussian System, Link 0=g09
 Input=estrutura83.com
 Output=estrutura83.log
 Initial command:
 /scr/programas/g09/l1.exe "/scr/nqtcm/Gau-2949.inp" -scrdir="/scr/nqtcm/"
 Entering Link 1 = /scr/programas/g09/l1.exe PID=      2951.
  
 Copyright (c) 1988,1990,1992,1993,1995,1998,2003,2009,2013,
            Gaussian, Inc.  All Rights Reserved.
  
 This is part of the Gaussian(R) 09 program.  It is based on
 the Gaussian(R) 03 system (copyright 2003, Gaussian, Inc.),
 the Gaussian(R) 98 system (copyright 1998, Gaussian, Inc.),
 the Gaussian(R) 94 system (copyright 1995, Gaussian, Inc.),
 the Gaussian 92(TM) system (copyright 1992, Gaussian, Inc.),
 the Gaussian 90(TM) system (copyright 1990, Gaussian, Inc.),
 the Gaussian 88(TM) system (copyright 1988, Gaussian, Inc.),
 the Gaussian 86(TM) system (copyright 1986, Carnegie Mellon
 University), and the Gaussian 82(TM) system (copyright 1983,
 Carnegie Mellon University). Gaussian is a federally registered
 trademark of Gaussian, Inc.
  
 This software contains proprietary and confidential information,
 including trade secrets, belonging to Gaussian, Inc.
  
 This software is provided under written license and may be
 used, copied, transmitted, or stored only in accord with that
 written license.
  
 The following legend is applicable only to US Government
 contracts under FAR:
  
                    RESTRICTED RIGHTS LEGEND
  
 Use, reproduction and disclosure by the US Government is
 subject to restrictions as set forth in subparagraphs (a)
 and (c) of the Commercial Computer Software - Restricted
 Rights clause in FAR 52.227-19.
  
 Gaussian, Inc.
 340 Quinnipiac St., Bldg. 40, Wallingford CT 06492
  
  
 ---------------------------------------------------------------
 Warning -- This program may not be used in any manner that
 competes with the business of Gaussian, Inc. or will provide
 assistance to any competitor of Gaussian, Inc.  The licensee
 of this program is prohibited from giving any competitor of
 Gaussian, Inc. access to this program.  By using this program,
 the user acknowledges that Gaussian, Inc. is engaged in the
 business of creating and licensing software in the field of
 computational chemistry and represents and warrants to the
 licensee that it is not a competitor of Gaussian, Inc. and that
 it will not use this program in any manner prohibited above.
 ---------------------------------------------------------------
  

 Cite this work as:
 Gaussian 09, Revision D.01,
 M. J. Frisch, G. W. Trucks, H. B. Schlegel, G. E. Scuseria, 
 M. A. Robb, J. R. Cheeseman, G. Scalmani, V. Barone, B. Mennucci, 
 G. A. Petersson, H. Nakatsuji, M. Caricato, X. Li, H. P. Hratchian, 
 A. F. Izmaylov, J. Bloino, G. Zheng, J. L. Sonnenberg, M. Hada, 
 M. Ehara, K. Toyota, R. Fukuda, J. Hasegawa, M. Ishida, T. Nakajima, 
 Y. Honda, O. Kitao, H. Nakai, T. Vreven, J. A. Montgomery, Jr., 
 J. E. Peralta, F. Ogliaro, M. Bearpark, J. J. Heyd, E. Brothers, 
 K. N. Kudin, V. N. Staroverov, T. Keith, R. Kobayashi, J. Normand, 
 K. Raghavachari, A. Rendell, J. C. Burant, S. S. Iyengar, J. Tomasi, 
 M. Cossi, N. Rega, J. M. Millam, M. Klene, J. E. Knox, J. B. Cross, 
 V. Bakken, C. Adamo, J. Jaramillo, R. Gomperts, R. E. Stratmann, 
 O. Yazyev, A. J. Austin, R. Cammi, C. Pomelli, J. W. Ochterski, 
 R. L. Martin, K. Morokuma, V. G. Zakrzewski, G. A. Voth, 
 P. Salvador, J. J. Dannenberg, S. Dapprich, A. D. Daniels, 
 O. Farkas, J. B. Foresman, J. V. Ortiz, J. Cioslowski, 
 and D. J. Fox, Gaussian, Inc., Wallingford CT, 2013.
 
 ******************************************
 Gaussian 09:  EM64L-G09RevD.01 24-Apr-2013
                12-Nov-2019 
 ******************************************
 %mem=7Gb
 %nproc=4
 Will use up to    4 processors via shared memory.
 ----------------------------------------------------------------------
 #PBEPBE/gen scf=(maxcycle=500,conver=3) NMR=GIAO Scrf=(solvent=Dichlor
 omethane)
 ----------------------------------------------------------------------
 1/38=1/1;
 2/12=2,17=6,18=5,40=1/2;
 3/5=7,11=2,16=1,25=1,30=1,70=2201,72=9,74=1009/1,2,8,3;
 4//1;
 5/5=2,6=3,7=500,38=5,53=9/2;
 8/6=1,10=90,11=11/1;
 10/13=100,45=16/2;
 6/7=2,8=2,9=2,10=2,28=1/1;
 99/9=1/99;
 Leave Link    1 at Tue Nov 12 20:09:00 2019, MaxMem=   939524096 cpu:         0.3
 (Enter /scr/programas/g09/l101.exe)
 ------------
 estrutura 83
 ------------
 Symbolic Z-matrix:
 Charge =  0 Multiplicity = 1
 Pt                   -0.24103   0.36061   0.09209 
 C                     0.08509   2.40947   0.22584 
 C                     0.09028   3.29302  -0.8727 
 C                     0.25353   2.99082   1.50036 
 C                     0.22202   4.67795  -0.71056 
 H                    -0.0061    2.90413  -1.88858 
 C                     0.39046   4.37415   1.67182 
 H                     0.27327   2.35387   2.38919 
 C                     0.37005   5.22974   0.56561 
 H                     0.21554   5.32713  -1.59166 
 H                     0.51348   4.78377   2.67921 
 H                     0.4755    6.31035   0.69619 
 P                    -2.68687   0.95721  -0.10569 
 P                    -0.44967  -2.07719   0.18876 
 C                    -3.0917    1.44084  -1.8475 
 C                    -4.40148   1.80872  -2.21163 
 C                    -2.10391   1.39139  -2.84325 
 C                    -4.70474   2.14152  -3.53336 
 H                    -5.19492   1.82773  -1.46153 
 C                    -2.40976   1.7197   -4.16911 
 H                    -1.09038   1.08255  -2.5806 
 C                    -3.70817   2.10026  -4.5157 
 H                    -5.72535   2.42858  -3.79845 
 H                    -1.62814   1.67423  -4.93149 
 H                    -3.94764   2.35747  -5.55053 
 C                    -3.10276   2.42899   0.93805 
 C                    -2.90395   2.32763   2.32783 
 C                    -3.57713   3.64255   0.41688 
 C                    -3.21657   3.39107   3.17683 
 H                    -2.4904    1.41309   2.75894 
 C                    -3.87112   4.71538   1.26653 
 H                    -3.71355   3.76654  -0.65777 
 C                    -3.70416   4.59056   2.64765 
 H                    -3.06407   3.28602   4.25385 
 H                    -4.23445   5.6538    0.83999 
 H                    -3.94127   5.42761   3.30904 
 C                    -4.11713  -0.19053   0.23892 
 C                    -4.35991  -1.23778  -0.66933 
 C                    -4.96381  -0.06304   1.35334 
 C                    -5.41592  -2.12943  -0.46804 
 H                    -3.72937  -1.35685  -1.55177 
 C                    -6.01863  -0.96004   1.55506 
 H                    -4.81975   0.74577   2.06965 
 C                    -6.2492   -1.99638   0.64718 
 H                    -5.58579  -2.93221  -1.18966 
 H                    -6.66671  -0.838     2.42674 
 H                    -7.07609  -2.69345   0.80386 
 C                     1.06309  -3.1574    0.28747 
 C                     1.42821  -4.05233  -0.72969 
 C                     1.84192  -3.10905   1.45708 
 C                     2.53971  -4.88873  -0.57425 
 H                     0.8451   -4.11091  -1.64934 
 C                     2.95133  -3.94304   1.60994 
 H                     1.57657  -2.42633   2.26628 
 C                     3.30174  -4.8401    0.59514 
 H                     2.80714  -5.58177  -1.37592 
 H                     3.54139  -3.89212   2.52852 
 H                     4.16741  -5.49646   0.71592 
 C                    -1.32984  -2.81116  -1.26689 
 C                    -2.1914   -3.91819  -1.19355 
 C                    -1.08375  -2.22904  -2.52294 
 C                    -2.78994  -4.42935  -2.34957 
 H                    -2.41442  -4.38452  -0.23356 
 C                    -1.67857  -2.74318  -3.6792 
 H                    -0.42221  -1.36316  -2.59471 
 C                    -2.53569  -3.84525  -3.59478 
 H                    -3.46173  -5.28837  -2.27351 
 H                    -1.47578  -2.27642  -4.64632 
 H                    -3.00633  -4.24592  -4.49613 
 C                    -1.33053  -2.6853    1.70483 
 C                    -1.3499   -4.04966   2.0558 
 C                    -1.93839  -1.76357   2.56959 
 C                    -1.99161  -4.47581   3.22073 
 H                    -0.84397  -4.78664   1.42903 
 C                    -2.57279  -2.18783   3.74261 
 H                    -1.89847  -0.70211   2.32381 
 C                    -2.60701  -3.54578   4.06704 
 H                    -2.00123  -5.53883   3.47447 
 H                    -3.03758  -1.45219   4.40372 
 H                    -3.10217  -3.88042   4.98219 
 Sn                    2.42194   0.41646  -0.05405 
 C                     3.36515   0.1761    1.92347 
 C                     4.76321   0.18449   2.08734 
 C                     2.57371   0.0598    3.08067 
 C                     5.34824   0.06082   3.3547 
 H                     5.41953   0.2977    1.21902 
 C                     3.15007  -0.05791   4.35227 
 H                     1.48227   0.06085   2.99179 
 C                     4.54211  -0.06239   4.49155 
 H                     6.43771   0.06509   3.45417 
 H                     2.5109   -0.14565   5.23585 
 H                     4.99673  -0.15622   5.48172 
 C                     3.33847  -1.00052  -1.47807 
 C                     4.51857  -1.7056   -1.18378 
 C                     2.81182  -1.12518  -2.77711 
 C                     5.15271  -2.49867  -2.14879 
 H                     4.95879  -1.64787  -0.18441 
 C                     3.43754  -1.91867  -3.74734 
 H                     1.8945   -0.59367  -3.0515 
 C                     4.61448  -2.60721  -3.43523 
 H                     6.07053  -3.03637  -1.89272 
 H                     3.00629  -1.99661  -4.74983 
 H                     5.1086   -3.22532  -4.18994 
 C                     3.45276   2.23446  -0.77238 
 C                     3.63059   2.47356  -2.14737 
 C                     4.00686   3.16347   0.12661 
 C                     4.32506   3.5986   -2.60902 
 H                     3.23224   1.76874  -2.88396 
 C                     4.70451   4.29076  -0.32631 
 H                     3.8975    3.01308   1.2046 
 C                     4.86523   4.51273  -1.69762 
 H                     4.44876   3.75935  -3.68423 
 H                     5.12531   4.99685   0.39603 
 H                     5.41058   5.39083  -2.05425 
 
 NAtoms=    114 NQM=      114 NQMF=       0 NMMI=      0 NMMIF=      0
                NMic=       0 NMicF=      0.
                    Isotopes and Nuclear Properties:
 (Nuclear quadrupole moments (NQMom) in fm**2, nuclear magnetic moments (NMagM)
  in nuclear magnetons)

  Atom         1           2           3           4           5           6           7           8           9          10
 IAtWgt=         195          12          12          12          12           1          12           1          12           1
 AtmWgt= 194.9648000  12.0000000  12.0000000  12.0000000  12.0000000   1.0078250  12.0000000   1.0078250  12.0000000   1.0078250
 NucSpn=           1           0           0           0           0           1           0           1           0           1
 AtZEff=   0.0000000   0.0000000   0.0000000   0.0000000   0.0000000   0.0000000   0.0000000   0.0000000   0.0000000   0.0000000
 NQMom=    0.0000000   0.0000000   0.0000000   0.0000000   0.0000000   0.0000000   0.0000000   0.0000000   0.0000000   0.0000000
 NMagM=    0.6095000   0.0000000   0.0000000   0.0000000   0.0000000   2.7928460   0.0000000   2.7928460   0.0000000   2.7928460
 AtZNuc=  78.0000000   6.0000000   6.0000000   6.0000000   6.0000000   1.0000000   6.0000000   1.0000000   6.0000000   1.0000000

  Atom        11          12          13          14          15          16          17          18          19          20
 IAtWgt=           1           1          31          31          12          12          12          12           1          12
 AtmWgt=   1.0078250   1.0078250  30.9737634  30.9737634  12.0000000  12.0000000  12.0000000  12.0000000   1.0078250  12.0000000
 NucSpn=           1           1           1           1           0           0           0           0           1           0
 AtZEff=   0.0000000   0.0000000   0.0000000   0.0000000   0.0000000   0.0000000   0.0000000   0.0000000   0.0000000   0.0000000
 NQMom=    0.0000000   0.0000000   0.0000000   0.0000000   0.0000000   0.0000000   0.0000000   0.0000000   0.0000000   0.0000000
 NMagM=    2.7928460   2.7928460   1.1316000   1.1316000   0.0000000   0.0000000   0.0000000   0.0000000   2.7928460   0.0000000
 AtZNuc=   1.0000000   1.0000000  15.0000000  15.0000000   6.0000000   6.0000000   6.0000000   6.0000000   1.0000000   6.0000000

  Atom        21          22          23          24          25          26          27          28          29          30
 IAtWgt=           1          12           1           1           1          12          12          12          12           1
 AtmWgt=   1.0078250  12.0000000   1.0078250   1.0078250   1.0078250  12.0000000  12.0000000  12.0000000  12.0000000   1.0078250
 NucSpn=           1           0           1           1           1           0           0           0           0           1
 AtZEff=   0.0000000   0.0000000   0.0000000   0.0000000   0.0000000   0.0000000   0.0000000   0.0000000   0.0000000   0.0000000
 NQMom=    0.0000000   0.0000000   0.0000000   0.0000000   0.0000000   0.0000000   0.0000000   0.0000000   0.0000000   0.0000000
 NMagM=    2.7928460   0.0000000   2.7928460   2.7928460   2.7928460   0.0000000   0.0000000   0.0000000   0.0000000   2.7928460
 AtZNuc=   1.0000000   6.0000000   1.0000000   1.0000000   1.0000000   6.0000000   6.0000000   6.0000000   6.0000000   1.0000000

  Atom        31          32          33          34          35          36          37          38          39          40
 IAtWgt=          12           1          12           1           1           1          12          12          12          12
 AtmWgt=  12.0000000   1.0078250  12.0000000   1.0078250   1.0078250   1.0078250  12.0000000  12.0000000  12.0000000  12.0000000
 NucSpn=           0           1           0           1           1           1           0           0           0           0
 AtZEff=   0.0000000   0.0000000   0.0000000   0.0000000   0.0000000   0.0000000   0.0000000   0.0000000   0.0000000   0.0000000
 NQMom=    0.0000000   0.0000000   0.0000000   0.0000000   0.0000000   0.0000000   0.0000000   0.0000000   0.0000000   0.0000000
 NMagM=    0.0000000   2.7928460   0.0000000   2.7928460   2.7928460   2.7928460   0.0000000   0.0000000   0.0000000   0.0000000
 AtZNuc=   6.0000000   1.0000000   6.0000000   1.0000000   1.0000000   1.0000000   6.0000000   6.0000000   6.0000000   6.0000000

  Atom        41          42          43          44          45          46          47          48          49          50
 IAtWgt=           1          12           1          12           1           1           1          12          12          12
 AtmWgt=   1.0078250  12.0000000   1.0078250  12.0000000   1.0078250   1.0078250   1.0078250  12.0000000  12.0000000  12.0000000
 NucSpn=           1           0           1           0           1           1           1           0           0           0
 AtZEff=   0.0000000   0.0000000   0.0000000   0.0000000   0.0000000   0.0000000   0.0000000   0.0000000   0.0000000   0.0000000
 NQMom=    0.0000000   0.0000000   0.0000000   0.0000000   0.0000000   0.0000000   0.0000000   0.0000000   0.0000000   0.0000000
 NMagM=    2.7928460   0.0000000   2.7928460   0.0000000   2.7928460   2.7928460   2.7928460   0.0000000   0.0000000   0.0000000
 AtZNuc=   1.0000000   6.0000000   1.0000000   6.0000000   1.0000000   1.0000000   1.0000000   6.0000000   6.0000000   6.0000000

  Atom        51          52          53          54          55          56          57          58          59          60
 IAtWgt=          12           1          12           1          12           1           1           1          12          12
 AtmWgt=  12.0000000   1.0078250  12.0000000   1.0078250  12.0000000   1.0078250   1.0078250   1.0078250  12.0000000  12.0000000
 NucSpn=           0           1           0           1           0           1           1           1           0           0
 AtZEff=   0.0000000   0.0000000   0.0000000   0.0000000   0.0000000   0.0000000   0.0000000   0.0000000   0.0000000   0.0000000
 NQMom=    0.0000000   0.0000000   0.0000000   0.0000000   0.0000000   0.0000000   0.0000000   0.0000000   0.0000000   0.0000000
 NMagM=    0.0000000   2.7928460   0.0000000   2.7928460   0.0000000   2.7928460   2.7928460   2.7928460   0.0000000   0.0000000
 AtZNuc=   6.0000000   1.0000000   6.0000000   1.0000000   6.0000000   1.0000000   1.0000000   1.0000000   6.0000000   6.0000000

  Atom        61          62          63          64          65          66          67          68          69          70
 IAtWgt=          12          12           1          12           1          12           1           1           1          12
 AtmWgt=  12.0000000  12.0000000   1.0078250  12.0000000   1.0078250  12.0000000   1.0078250   1.0078250   1.0078250  12.0000000
 NucSpn=           0           0           1           0           1           0           1           1           1           0
 AtZEff=   0.0000000   0.0000000   0.0000000   0.0000000   0.0000000   0.0000000   0.0000000   0.0000000   0.0000000   0.0000000
 NQMom=    0.0000000   0.0000000   0.0000000   0.0000000   0.0000000   0.0000000   0.0000000   0.0000000   0.0000000   0.0000000
 NMagM=    0.0000000   0.0000000   2.7928460   0.0000000   2.7928460   0.0000000   2.7928460   2.7928460   2.7928460   0.0000000
 AtZNuc=   6.0000000   6.0000000   1.0000000   6.0000000   1.0000000   6.0000000   1.0000000   1.0000000   1.0000000   6.0000000

  Atom        71          72          73          74          75          76          77          78          79          80
 IAtWgt=          12          12          12           1          12           1          12           1           1           1
 AtmWgt=  12.0000000  12.0000000  12.0000000   1.0078250  12.0000000   1.0078250  12.0000000   1.0078250   1.0078250   1.0078250
 NucSpn=           0           0           0           1           0           1           0           1           1           1
 AtZEff=   0.0000000   0.0000000   0.0000000   0.0000000   0.0000000   0.0000000   0.0000000   0.0000000   0.0000000   0.0000000
 NQMom=    0.0000000   0.0000000   0.0000000   0.0000000   0.0000000   0.0000000   0.0000000   0.0000000   0.0000000   0.0000000
 NMagM=    0.0000000   0.0000000   0.0000000   2.7928460   0.0000000   2.7928460   0.0000000   2.7928460   2.7928460   2.7928460
 AtZNuc=   6.0000000   6.0000000   6.0000000   1.0000000   6.0000000   1.0000000   6.0000000   1.0000000   1.0000000   1.0000000

  Atom        81          82          83          84          85          86          87          88          89          90
 IAtWgt=         118          12          12          12          12           1          12           1          12           1
 AtmWgt= 117.9018000  12.0000000  12.0000000  12.0000000  12.0000000   1.0078250  12.0000000   1.0078250  12.0000000   1.0078250
 NucSpn=           0           0           0           0           0           1           0           1           0           1
 AtZEff=   0.0000000   0.0000000   0.0000000   0.0000000   0.0000000   0.0000000   0.0000000   0.0000000   0.0000000   0.0000000
 NQMom=    0.0000000   0.0000000   0.0000000   0.0000000   0.0000000   0.0000000   0.0000000   0.0000000   0.0000000   0.0000000
 NMagM=    0.0000000   0.0000000   0.0000000   0.0000000   0.0000000   2.7928460   0.0000000   2.7928460   0.0000000   2.7928460
 AtZNuc=  50.0000000   6.0000000   6.0000000   6.0000000   6.0000000   1.0000000   6.0000000   1.0000000   6.0000000   1.0000000

  Atom        91          92          93          94          95          96          97          98          99         100
 IAtWgt=           1           1          12          12          12          12           1          12           1          12
 AtmWgt=   1.0078250   1.0078250  12.0000000  12.0000000  12.0000000  12.0000000   1.0078250  12.0000000   1.0078250  12.0000000
 NucSpn=           1           1           0           0           0           0           1           0           1           0
 AtZEff=   0.0000000   0.0000000   0.0000000   0.0000000   0.0000000   0.0000000   0.0000000   0.0000000   0.0000000   0.0000000
 NQMom=    0.0000000   0.0000000   0.0000000   0.0000000   0.0000000   0.0000000   0.0000000   0.0000000   0.0000000   0.0000000
 NMagM=    2.7928460   2.7928460   0.0000000   0.0000000   0.0000000   0.0000000   2.7928460   0.0000000   2.7928460   0.0000000
 AtZNuc=   1.0000000   1.0000000   6.0000000   6.0000000   6.0000000   6.0000000   1.0000000   6.0000000   1.0000000   6.0000000

  Atom       101         102         103         104         105         106         107         108         109         110
 IAtWgt=           1           1           1          12          12          12          12           1          12           1
 AtmWgt=   1.0078250   1.0078250   1.0078250  12.0000000  12.0000000  12.0000000  12.0000000   1.0078250  12.0000000   1.0078250
 NucSpn=           1           1           1           0           0           0           0           1           0           1
 AtZEff=   0.0000000   0.0000000   0.0000000   0.0000000   0.0000000   0.0000000   0.0000000   0.0000000   0.0000000   0.0000000
 NQMom=    0.0000000   0.0000000   0.0000000   0.0000000   0.0000000   0.0000000   0.0000000   0.0000000   0.0000000   0.0000000
 NMagM=    2.7928460   2.7928460   2.7928460   0.0000000   0.0000000   0.0000000   0.0000000   2.7928460   0.0000000   2.7928460
 AtZNuc=   1.0000000   1.0000000   1.0000000   6.0000000   6.0000000   6.0000000   6.0000000   1.0000000   6.0000000   1.0000000

  Atom       111         112         113         114
 IAtWgt=          12           1           1           1
 AtmWgt=  12.0000000   1.0078250   1.0078250   1.0078250
 NucSpn=           0           1           1           1
 AtZEff=   0.0000000   0.0000000   0.0000000   0.0000000
 NQMom=    0.0000000   0.0000000   0.0000000   0.0000000
 NMagM=    0.0000000   2.7928460   2.7928460   2.7928460
 AtZNuc=   6.0000000   1.0000000   1.0000000   1.0000000
 Leave Link  101 at Tue Nov 12 20:09:00 2019, MaxMem=   939524096 cpu:         0.8
 (Enter /scr/programas/g09/l202.exe)
 Stoichiometry    C60H50P2PtSn
 Framework group  C1[X(C60H50P2PtSn)]
 Deg. of freedom   336
 Full point group                 C1      NOp   1
 Largest Abelian subgroup         C1      NOp   1
 Largest concise Abelian subgroup C1      NOp   1
                         Standard orientation:                         
 ---------------------------------------------------------------------
 Center     Atomic      Atomic             Coordinates (Angstroms)
 Number     Number       Type             X           Y           Z
 ---------------------------------------------------------------------
      1         78           0        0.241031    0.360606   -0.092089
      2          6           0       -0.085090    2.409471   -0.225840
      3          6           0       -0.090281    3.293021    0.872695
      4          6           0       -0.253534    2.990819   -1.500359
      5          6           0       -0.222023    4.677954    0.710556
      6          1           0        0.006103    2.904129    1.888575
      7          6           0       -0.390459    4.374148   -1.671824
      8          1           0       -0.273265    2.353866   -2.389192
      9          6           0       -0.370052    5.229737   -0.565609
     10          1           0       -0.215543    5.327131    1.591659
     11          1           0       -0.513476    4.783773   -2.679214
     12          1           0       -0.475502    6.310352   -0.696188
     13         15           0        2.686874    0.957210    0.105693
     14         15           0        0.449673   -2.077190   -0.188755
     15          6           0        3.091700    1.440841    1.847497
     16          6           0        4.401480    1.808718    2.211627
     17          6           0        2.103914    1.391392    2.843254
     18          6           0        4.704735    2.141518    3.533363
     19          1           0        5.194918    1.827731    1.461533
     20          6           0        2.409755    1.719697    4.169108
     21          1           0        1.090384    1.082555    2.580603
     22          6           0        3.708172    2.100262    4.515701
     23          1           0        5.725352    2.428583    3.798451
     24          1           0        1.628141    1.674232    4.931492
     25          1           0        3.947638    2.357475    5.550532
     26          6           0        3.102758    2.428991   -0.938054
     27          6           0        2.903946    2.327631   -2.327830
     28          6           0        3.577131    3.642547   -0.416881
     29          6           0        3.216569    3.391065   -3.176829
     30          1           0        2.490401    1.413088   -2.758937
     31          6           0        3.871115    4.715376   -1.266526
     32          1           0        3.713554    3.766544    0.657766
     33          6           0        3.704162    4.590558   -2.647649
     34          1           0        3.064072    3.286024   -4.253848
     35          1           0        4.234452    5.653801   -0.839988
     36          1           0        3.941267    5.427607   -3.309044
     37          6           0        4.117127   -0.190533   -0.238922
     38          6           0        4.359906   -1.237782    0.669330
     39          6           0        4.963814   -0.063035   -1.353339
     40          6           0        5.415917   -2.129426    0.468037
     41          1           0        3.729365   -1.356853    1.551772
     42          6           0        6.018635   -0.960043   -1.555055
     43          1           0        4.819754    0.745771   -2.069651
     44          6           0        6.249205   -1.996380   -0.647179
     45          1           0        5.585788   -2.932205    1.189664
     46          1           0        6.666712   -0.837995   -2.426737
     47          1           0        7.076090   -2.693446   -0.803858
     48          6           0       -1.063090   -3.157403   -0.287473
     49          6           0       -1.428209   -4.052333    0.729693
     50          6           0       -1.841919   -3.109047   -1.457077
     51          6           0       -2.539710   -4.888727    0.574250
     52          1           0       -0.845100   -4.110911    1.649338
     53          6           0       -2.951329   -3.943037   -1.609937
     54          1           0       -1.576566   -2.426329   -2.266281
     55          6           0       -3.301744   -4.840097   -0.595138
     56          1           0       -2.807136   -5.581770    1.375918
     57          1           0       -3.541392   -3.892116   -2.528524
     58          1           0       -4.167411   -5.496460   -0.715917
     59          6           0        1.329841   -2.811158    1.266890
     60          6           0        2.191404   -3.918191    1.193549
     61          6           0        1.083750   -2.229043    2.522944
     62          6           0        2.789942   -4.429346    2.349565
     63          1           0        2.414424   -4.384520    0.233562
     64          6           0        1.678570   -2.743183    3.679196
     65          1           0        0.422208   -1.363162    2.594709
     66          6           0        2.535691   -3.845245    3.594783
     67          1           0        3.461725   -5.288367    2.273507
     68          1           0        1.475780   -2.276415    4.646317
     69          1           0        3.006327   -4.245925    4.496126
     70          6           0        1.330532   -2.685298   -1.704826
     71          6           0        1.349897   -4.049662   -2.055799
     72          6           0        1.938389   -1.763572   -2.569590
     73          6           0        1.991614   -4.475814   -3.220730
     74          1           0        0.843970   -4.786643   -1.429031
     75          6           0        2.572790   -2.187828   -3.742611
     76          1           0        1.898466   -0.702106   -2.323805
     77          6           0        2.607007   -3.545775   -4.067038
     78          1           0        2.001227   -5.538827   -3.474470
     79          1           0        3.037581   -1.452193   -4.403723
     80          1           0        3.102168   -3.880418   -4.982190
     81         50           0       -2.421936    0.416462    0.054048
     82          6           0       -3.365145    0.176101   -1.923473
     83          6           0       -4.763205    0.184487   -2.087336
     84          6           0       -2.573711    0.059801   -3.080668
     85          6           0       -5.348242    0.060823   -3.354696
     86          1           0       -5.419530    0.297702   -1.219021
     87          6           0       -3.150067   -0.057909   -4.352272
     88          1           0       -1.482267    0.060846   -2.991786
     89          6           0       -4.542107   -0.062390   -4.491547
     90          1           0       -6.437708    0.065088   -3.454172
     91          1           0       -2.510897   -0.145647   -5.235855
     92          1           0       -4.996726   -0.156223   -5.481720
     93          6           0       -3.338469   -1.000520    1.478067
     94          6           0       -4.518566   -1.705600    1.183775
     95          6           0       -2.811818   -1.125176    2.777112
     96          6           0       -5.152707   -2.498672    2.148789
     97          1           0       -4.958785   -1.647866    0.184409
     98          6           0       -3.437537   -1.918671    3.747342
     99          1           0       -1.894501   -0.593670    3.051496
    100          6           0       -4.614476   -2.607211    3.435229
    101          1           0       -6.070526   -3.036374    1.892717
    102          1           0       -3.006285   -1.996610    4.749825
    103          1           0       -5.108601   -3.225321    4.189936
    104          6           0       -3.452761    2.234457    0.772375
    105          6           0       -3.630588    2.473557    2.147365
    106          6           0       -4.006859    3.163471   -0.126608
    107          6           0       -4.325057    3.598601    2.609017
    108          1           0       -3.232237    1.768742    2.883959
    109          6           0       -4.704507    4.290760    0.326312
    110          1           0       -3.897495    3.013085   -1.204597
    111          6           0       -4.865225    4.512729    1.697618
    112          1           0       -4.448755    3.759349    3.684225
    113          1           0       -5.125306    4.996845   -0.396029
    114          1           0       -5.410581    5.390828    2.054255
 ---------------------------------------------------------------------
 Rotational constants (GHZ):      0.0435968      0.0350161      0.0294069
 Leave Link  202 at Tue Nov 12 20:09:00 2019, MaxMem=   939524096 cpu:         0.1
 (Enter /scr/programas/g09/l301.exe)
 General basis read from cards:  (5D, 7F)
 Centers:       6      8     10     11     12     19     21     23     24     25
 Centers:      30     32     34     35     36     41     43     45     46     47
 Centers:      52     54     56     57     58     63     65     67     68     69
 Centers:      74     76     78     79     80     86     88     90     91     92
 Centers:      97     99    101    102    103    108    110    112    113    114
 S 5 1.00
     Exponent=  2.8295215633D+02 Coefficients=  4.3000000000D-04
     Exponent=  8.7062201949D+01 Coefficients=  5.1000000000D-04
     Exponent=  2.6788369830D+01 Coefficients=  6.1600000000D-03
     Exponent=  8.2425753324D+00 Coefficients=  1.3030000000D-02
     Exponent=  2.5361770254D+00 Coefficients=  9.9490000000D-02
 S 1 1.00
     Exponent=  7.8036216165D-01 Coefficients=  1.0000000000D+00
 S 1 1.00
     Exponent=  2.4011143435D-01 Coefficients=  1.0000000000D+00
 P 1 1.00
     Exponent=  8.8150000000D-01 Coefficients=  1.0000000000D+00
 P 1 1.00
     Exponent=  1.7989200000D-01 Coefficients=  1.0000000000D+00
 ****
 Centers:       2      3      4      5      7      9     15     16     17     18
 Centers:      20     22     26     27     28     29     31     33     37     38
 Centers:      39     40     42     44     48     49     50     51     53     55
 Centers:      59     60     61     62     64     66     70     71     72     73
 Centers:      75     77     82     83     84     85     87     89     93     94
 Centers:      95     96     98    100    104    105    106    107    109    111
 S 6 1.00
     Exponent=  8.8461235339D+03 Coefficients=  5.3000000000D-04
     Exponent=  2.9487078446D+03 Coefficients=  7.7000000000D-04
     Exponent=  9.8290261488D+02 Coefficients=  4.0500000000D-03
     Exponent=  3.2763420496D+02 Coefficients=  1.4030000000D-02
     Exponent=  1.0921140165D+02 Coefficients=  5.3450000000D-02
     Exponent=  3.6403800551D+01 Coefficients=  1.7027000000D-01
 S 1 1.00
     Exponent=  1.2134600184D+01 Coefficients=  1.0000000000D+00
 S 1 1.00
     Exponent=  4.0448667279D+00 Coefficients=  1.0000000000D+00
 S 1 1.00
     Exponent=  1.3482889093D+00 Coefficients=  1.0000000000D+00
 S 1 1.00
     Exponent=  4.4942963643D-01 Coefficients=  1.0000000000D+00
 S 1 1.00
     Exponent=  1.4980987881D-01 Coefficients=  1.0000000000D+00
 P 4 1.00
     Exponent=  3.7294093393D+01 Coefficients=  3.9600000000D-03
     Exponent=  1.1475105659D+01 Coefficients=  1.8890000000D-02
     Exponent=  3.5308017414D+00 Coefficients=  9.4610000000D-02
     Exponent=  1.0864005358D+00 Coefficients=  3.1889000000D-01
 P 1 1.00
     Exponent=  3.3427708794D-01 Coefficients=  1.0000000000D+00
 P 1 1.00
     Exponent=  1.0285448860D-01 Coefficients=  1.0000000000D+00
 D 1 1.00
     Exponent=  4.7750000000D-01 Coefficients=  1.0000000000D+00
 D 1 1.00
     Exponent=  1.1998000000D-01 Coefficients=  1.0000000000D+00
 ****
 Centers:      13     14
 S 7 1.00
     Exponent=  5.9538004301D+04 Coefficients=  9.5000000000D-04
     Exponent=  2.1650183382D+04 Coefficients=  6.1000000000D-04
     Exponent=  7.8727939572D+03 Coefficients=  3.7500000000D-03
     Exponent=  2.8628341663D+03 Coefficients=  9.6300000000D-03
     Exponent=  1.0410306059D+03 Coefficients=  3.2430000000D-02
     Exponent=  3.7855658397D+02 Coefficients=  9.9500000000D-02
     Exponent=  1.3765693962D+02 Coefficients=  2.6570000000D-01
 S 1 1.00
     Exponent=  5.0057068954D+01 Coefficients=  1.0000000000D+00
 S 1 1.00
     Exponent=  1.8202570529D+01 Coefficients=  1.0000000000D+00
 S 1 1.00
     Exponent=  6.6191165560D+00 Coefficients=  1.0000000000D+00
 S 1 1.00
     Exponent=  2.4069514749D+00 Coefficients=  1.0000000000D+00
 S 1 1.00
     Exponent=  8.7525508178D-01 Coefficients=  1.0000000000D+00
 S 1 1.00
     Exponent=  3.1827457519D-01 Coefficients=  1.0000000000D+00
 S 1 1.00
     Exponent=  1.1573620916D-01 Coefficients=  1.0000000000D+00
 S 1 1.00
     Exponent=  4.2085894240D-02 Coefficients=  1.0000000000D+00
 P 5 1.00
     Exponent=  4.8799672315D+02 Coefficients=  2.1600000000D-03
     Exponent=  1.6266557438D+02 Coefficients=  9.7900000000D-03
     Exponent=  5.4221858128D+01 Coefficients=  5.4850000000D-02
     Exponent=  1.8073952709D+01 Coefficients=  2.1770000000D-01
     Exponent=  6.0246509031D+00 Coefficients=  4.8978000000D-01
 P 1 1.00
     Exponent=  2.0082169677D+00 Coefficients=  1.0000000000D+00
 P 1 1.00
     Exponent=  6.6940565590D-01 Coefficients=  1.0000000000D+00
 P 1 1.00
     Exponent=  2.2313521863D-01 Coefficients=  1.0000000000D+00
 P 1 1.00
     Exponent=  7.4378406211D-02 Coefficients=  1.0000000000D+00
 P 1 1.00
     Exponent=  2.4792802070D-02 Coefficients=  1.0000000000D+00
 D 1 1.00
     Exponent=  3.5395000000D-01 Coefficients=  1.0000000000D+00
 D 1 1.00
     Exponent=  8.9098000000D-02 Coefficients=  1.0000000000D+00
 ****
 Centers:      81
 S 8 1.00
     Exponent=  7.5448214551D+05 Coefficients=  4.4300000000D-03
     Exponent=  3.3532539800D+05 Coefficients=  1.9800000000D-03
     Exponent=  1.4903351022D+05 Coefficients=  9.0500000000D-03
     Exponent=  6.6237115655D+04 Coefficients=  4.8700000000D-03
     Exponent=  2.9438718069D+04 Coefficients=  2.0770000000D-02
     Exponent=  1.3083874697D+04 Coefficients=  3.2900000000D-02
     Exponent=  5.8150554210D+03 Coefficients=  7.7010000000D-02
     Exponent=  2.5844690760D+03 Coefficients=  1.5160000000D-01
 S 1 1.00
     Exponent=  1.1486529227D+03 Coefficients=  1.0000000000D+00
 S 1 1.00
     Exponent=  5.1051241008D+02 Coefficients=  1.0000000000D+00
 S 1 1.00
     Exponent=  2.2689440448D+02 Coefficients=  1.0000000000D+00
 S 1 1.00
     Exponent=  1.0084195755D+02 Coefficients=  1.0000000000D+00
 S 1 1.00
     Exponent=  4.4818647798D+01 Coefficients=  1.0000000000D+00
 S 1 1.00
     Exponent=  1.9919399021D+01 Coefficients=  1.0000000000D+00
 S 1 1.00
     Exponent=  8.8530662317D+00 Coefficients=  1.0000000000D+00
 S 1 1.00
     Exponent=  3.9346961030D+00 Coefficients=  1.0000000000D+00
 S 1 1.00
     Exponent=  1.7487538235D+00 Coefficients=  1.0000000000D+00
 S 1 1.00
     Exponent=  7.7722392158D-01 Coefficients=  1.0000000000D+00
 S 1 1.00
     Exponent=  3.4543285403D-01 Coefficients=  1.0000000000D+00
 S 1 1.00
     Exponent=  1.5352571290D-01 Coefficients=  1.0000000000D+00
 S 1 1.00
     Exponent=  6.8233650180D-02 Coefficients=  1.0000000000D+00
 S 1 1.00
     Exponent=  1.3478251887D-02 Coefficients=  1.0000000000D+00
 P 5 1.00
     Exponent=  1.0090658304D+04 Coefficients=  2.7500000000D-03
     Exponent=  4.0362633217D+03 Coefficients=  4.1800000000D-03
     Exponent=  1.6145053287D+03 Coefficients=  2.0890000000D-02
     Exponent=  6.4580213147D+02 Coefficients=  7.1370000000D-02
     Exponent=  2.5832085259D+02 Coefficients=  2.2613000000D-01
 P 1 1.00
     Exponent=  1.0332834104D+02 Coefficients=  1.0000000000D+00
 P 1 1.00
     Exponent=  4.1331336414D+01 Coefficients=  1.0000000000D+00
 P 1 1.00
     Exponent=  1.6532534566D+01 Coefficients=  1.0000000000D+00
 P 1 1.00
     Exponent=  6.6130138263D+00 Coefficients=  1.0000000000D+00
 P 1 1.00
     Exponent=  2.6452055305D+00 Coefficients=  1.0000000000D+00
 P 1 1.00
     Exponent=  1.0580822122D+00 Coefficients=  1.0000000000D+00
 P 1 1.00
     Exponent=  4.2323288488D-01 Coefficients=  1.0000000000D+00
 P 1 1.00
     Exponent=  1.6929315395D-01 Coefficients=  1.0000000000D+00
 P 1 1.00
     Exponent=  6.7717261581D-02 Coefficients=  1.0000000000D+00
 P 1 1.00
     Exponent=  2.7086904632D-02 Coefficients=  1.0000000000D+00
 P 1 1.00
     Exponent=  1.0834761853D-02 Coefficients=  1.0000000000D+00
 D 4 1.00
     Exponent=  5.5430250651D+02 Coefficients=  4.3700000000D-03
     Exponent=  2.0156454782D+02 Coefficients=  2.5110000000D-02
     Exponent=  7.3296199207D+01 Coefficients=  1.3316000000D-01
     Exponent=  2.6653163348D+01 Coefficients=  3.8900000000D-01
 D 1 1.00
     Exponent=  9.6920593993D+00 Coefficients=  1.0000000000D+00
 D 1 1.00
     Exponent=  3.5243852361D+00 Coefficients=  1.0000000000D+00
 D 1 1.00
     Exponent=  1.2815946313D+00 Coefficients=  1.0000000000D+00
 D 1 1.00
     Exponent=  4.6603441139D-01 Coefficients=  1.0000000000D+00
 D 1 1.00
     Exponent=  1.6946705869D-01 Coefficients=  1.0000000000D+00
 F 1 1.00
     Exponent=  1.3140000000D+00 Coefficients=  1.0000000000D+00
 F 1 1.00
     Exponent=  1.9993000000D-01 Coefficients=  1.0000000000D+00
 ****
 Centers:       1
 S 9 1.00
     Exponent=  2.1644816090D+06 Coefficients=  1.2320000000D-02
     Exponent=  1.0822408045D+06 Coefficients=  1.2970000000D-02
     Exponent=  5.4112040224D+05 Coefficients=  2.6370000000D-02
     Exponent=  2.7056020112D+05 Coefficients=  9.0400000000D-03
     Exponent=  1.3528010056D+05 Coefficients=  3.4980000000D-02
     Exponent=  6.7640050280D+04 Coefficients=  1.2220000000D-02
     Exponent=  3.3820025140D+04 Coefficients=  6.0520000000D-02
     Exponent=  1.6910012570D+04 Coefficients=  6.4930000000D-02
     Exponent=  8.4550062850D+03 Coefficients=  1.3819000000D-01
 S 1 1.00
     Exponent=  4.2275031425D+03 Coefficients=  1.0000000000D+00
 S 1 1.00
     Exponent=  2.1137515713D+03 Coefficients=  1.0000000000D+00
 S 1 1.00
     Exponent=  1.0568757856D+03 Coefficients=  1.0000000000D+00
 S 1 1.00
     Exponent=  5.2843789281D+02 Coefficients=  1.0000000000D+00
 S 1 1.00
     Exponent=  2.6421894641D+02 Coefficients=  1.0000000000D+00
 S 1 1.00
     Exponent=  1.3210947320D+02 Coefficients=  1.0000000000D+00
 S 1 1.00
     Exponent=  6.6054736602D+01 Coefficients=  1.0000000000D+00
 S 1 1.00
     Exponent=  3.3027368301D+01 Coefficients=  1.0000000000D+00
 S 1 1.00
     Exponent=  1.6513684150D+01 Coefficients=  1.0000000000D+00
 S 1 1.00
     Exponent=  8.2568420752D+00 Coefficients=  1.0000000000D+00
 S 1 1.00
     Exponent=  4.1284210376D+00 Coefficients=  1.0000000000D+00
 S 1 1.00
     Exponent=  2.0642105188D+00 Coefficients=  1.0000000000D+00
 S 1 1.00
     Exponent=  1.0321052594D+00 Coefficients=  1.0000000000D+00
 S 1 1.00
     Exponent=  5.1605262970D-01 Coefficients=  1.0000000000D+00
 S 1 1.00
     Exponent=  2.5802631485D-01 Coefficients=  1.0000000000D+00
 S 1 1.00
     Exponent=  1.2901315743D-01 Coefficients=  1.0000000000D+00
 S 1 1.00
     Exponent=  6.4506578713D-02 Coefficients=  1.0000000000D+00
 P 7 1.00
     Exponent=  3.2357915258D+04 Coefficients=  5.0200000000D-03
     Exponent=  1.4381295670D+04 Coefficients=  2.0200000000D-03
     Exponent=  6.3916869645D+03 Coefficients=  1.8070000000D-02
     Exponent=  2.8407497620D+03 Coefficients=  3.6620000000D-02
     Exponent=  1.2625554498D+03 Coefficients=  1.1172000000D-01
     Exponent=  5.6113575545D+02 Coefficients=  2.5586000000D-01
     Exponent=  2.4939366909D+02 Coefficients=  4.2608000000D-01
 P 1 1.00
     Exponent=  1.1084163071D+02 Coefficients=  1.0000000000D+00
 P 1 1.00
     Exponent=  4.9262946981D+01 Coefficients=  1.0000000000D+00
 P 1 1.00
     Exponent=  2.1894643103D+01 Coefficients=  1.0000000000D+00
 P 1 1.00
     Exponent=  9.7309524900D+00 Coefficients=  1.0000000000D+00
 P 1 1.00
     Exponent=  4.3248677733D+00 Coefficients=  1.0000000000D+00
 P 1 1.00
     Exponent=  1.9221634548D+00 Coefficients=  1.0000000000D+00
 P 1 1.00
     Exponent=  8.5429486881D-01 Coefficients=  1.0000000000D+00
 P 1 1.00
     Exponent=  3.7968660836D-01 Coefficients=  1.0000000000D+00
 P 1 1.00
     Exponent=  1.6874960372D-01 Coefficients=  1.0000000000D+00
 P 1 1.00
     Exponent=  7.4999823874D-02 Coefficients=  1.0000000000D+00
 P 1 1.00
     Exponent=  3.3333255055D-02 Coefficients=  1.0000000000D+00
 D 5 1.00
     Exponent=  1.9119003508D+03 Coefficients=  4.3300000000D-03
     Exponent=  7.6476014031D+02 Coefficients=  1.7780000000D-02
     Exponent=  3.0590405613D+02 Coefficients=  8.9710000000D-02
     Exponent=  1.2236162245D+02 Coefficients=  3.1123000000D-01
     Exponent=  4.8944648980D+01 Coefficients=  5.3206000000D-01
 D 1 1.00
     Exponent=  1.9577859592D+01 Coefficients=  1.0000000000D+00
 D 1 1.00
     Exponent=  7.8311438368D+00 Coefficients=  1.0000000000D+00
 D 1 1.00
     Exponent=  3.1324575347D+00 Coefficients=  1.0000000000D+00
 D 1 1.00
     Exponent=  1.2529830139D+00 Coefficients=  1.0000000000D+00
 D 1 1.00
     Exponent=  5.0119320556D-01 Coefficients=  1.0000000000D+00
 D 1 1.00
     Exponent=  2.0047728222D-01 Coefficients=  1.0000000000D+00
 D 1 1.00
     Exponent=  8.0190912889D-02 Coefficients=  1.0000000000D+00
 D 1 1.00
     Exponent=  3.2076365156D-02 Coefficients=  1.0000000000D+00
 F 4 1.00
     Exponent=  8.2289680979D+01 Coefficients=  6.1870000000D-02
     Exponent=  2.9923520356D+01 Coefficients=  2.4823000000D-01
     Exponent=  1.0881280130D+01 Coefficients=  4.9956000000D-01
     Exponent=  3.9568291380D+00 Coefficients=  4.0380000000D-01
 F 1 1.00
     Exponent=  1.4388469593D+00 Coefficients=  1.0000000000D+00
 F 1 1.00
     Exponent=  5.2321707610D-01 Coefficients=  1.0000000000D+00
 G 1 1.00
     Exponent=  2.6700000000D+00 Coefficients=  1.0000000000D+00
 G 1 1.00
     Exponent=  9.0960000000D-01 Coefficients=  1.0000000000D+00
 ****
 Ernie: Thresh=  0.10000D-02 Tol=  0.10000D-05 Strict=F.
 There are  2423 symmetry adapted cartesian basis functions of A   symmetry.
 There are  2257 symmetry adapted basis functions of A   symmetry.
  2257 basis functions,  3616 primitive gaussians,  2423 cartesian basis functions
   284 alpha electrons      284 beta electrons
       nuclear repulsion energy     16525.9276547694 Hartrees.
 IExCor= 1009 DFT=T Ex=PBE Corr=PBE ExCW=0 ScaHFX=  0.000000
 ScaDFX=  1.000000  1.000000  1.000000  1.000000 ScalE2=  1.000000  1.000000
 IRadAn=      0 IRanWt=     -1 IRanGd=            0 ICorTp=0 IEmpDi=  4
 NAtoms=  114 NActive=  114 NUniq=  114 SFac= 1.00D+00 NAtFMM=   60 NAOKFM=T Big=T
 Integral buffers will be    131072 words long.
 Raffenetti 2 integral format.
 Two-electron integral symmetry is turned on.
 ------------------------------------------------------------------------------
 Polarizable Continuum Model (PCM)
 =================================
 Model                : PCM (using non-symmetric T matrix).
 Atomic radii         : UFF (Universal Force Field).
 Polarization charges : Total charges.
 Charge compensation  : None.
 Solution method      : On-the-fly selection.
 Cavity type          : Scaled VdW (van der Waals Surface) (Alpha=1.100).
 Cavity algorithm     : GePol (No added spheres)
                        Default sphere list used, NSphG=  114.
                        Lebedev-Laikov grids with approx.  5.0 points / Ang**2.
                        Smoothing algorithm: Karplus/York (Gamma=1.0000).
                        Polarization charges: spherical gaussians, with
                                              point-specific exponents (IZeta= 3).
                        Self-potential: point-specific (ISelfS= 7).
                        Self-field    : sphere-specific E.n sum rule (ISelfD= 2).
 Solvent              : Dichloromethane, Eps=   8.930000 Eps(inf)=   2.028346
 ------------------------------------------------------------------------------
 GePol: Number of generator spheres                  =     114
 GePol: Total number of spheres                      =     114
 GePol: Number of exposed spheres                    =     114 (100.00%)
 GePol: Number of points                             =    7956
 GePol: Average weight of points                     =       0.12
 GePol: Minimum weight of points                     =   0.22D-10
 GePol: Maximum weight of points                     =    0.21838
 GePol: Number of points with low weight             =     696
 GePol: Fraction of low-weight points (<1% of avg)   =       8.75%
 GePol: Cavity surface area                          =    963.478 Ang**2
 GePol: Cavity volume                                =   1242.897 Ang**3
 Leave Link  301 at Tue Nov 12 20:09:01 2019, MaxMem=   939524096 cpu:         1.3
 (Enter /scr/programas/g09/l302.exe)
 NPDir=0 NMtPBC=     1 NCelOv=     1 NCel=       1 NClECP=     1 NCelD=      1
         NCelK=      1 NCelE2=     1 NClLst=     1 CellRange=     0.0.
 One-electron integrals computed using PRISM.
 NBasis=  2257 RedAO= T EigKep=  1.36D-06  NBF=  2257
 NBsUse=  2257 1.00D-06 EigRej= -1.00D+00 NBFU=  2257
 Precomputing XC quadrature grid using
 IXCGrd= 4 IRadAn=           0 IRanWt=          -1 IRanGd=           0 AccXCQ= 0.00D+00.
 Defaulting to unpruned grid for atomic number  78.
 Defaulting to unpruned grid for atomic number  50.
 Generated NRdTot=       0 NPtTot=           0 NUsed=           0 NTot=          32
 NSgBfM=  2016  2019  2022  2022  2022 MxSgAt=   114 MxSgA2=   114.
 Leave Link  302 at Tue Nov 12 20:09:41 2019, MaxMem=   939524096 cpu:       156.5
 (Enter /scr/programas/g09/l308.exe)
 Leave Link  308 at Tue Nov 12 20:09:44 2019, MaxMem=   939524096 cpu:         9.6
 (Enter /scr/programas/g09/l303.exe)
 DipDrv:  MaxL=1.
 Leave Link  303 at Tue Nov 12 20:09:45 2019, MaxMem=   939524096 cpu:         5.8
 (Enter /scr/programas/g09/l401.exe)
 ExpMin= 1.08D-02 ExpMax= 2.16D+06 ExpMxC= 2.16D+06 IAcc=4 IRadAn=    199590 AccDes= 0.00D+00
 Harris functional with IExCor= 1009 and IRadAn=  199590 diagonalized for initial guess.
 HarFok:  IExCor= 1009 AccDes= 0.00D+00 IRadAn=    199590 IDoV= 1 UseB2=F ITyADJ=14
 ICtDFT=  3500011 ScaDFX=  1.000000  1.000000  1.000000  1.000000
 FoFCou: FMM=F IPFlag=           0 FMFlag=      100000 FMFlg1=        2001
         NFxFlg=           0 DoJE=T BraDBF=F KetDBF=T FulRan=T
         wScrn=  0.000000 ICntrl=     500 IOpCl=  0 I1Cent=   200000004 NGrid=           0
         NMat0=    1 NMatS0=      1 NMatT0=    0 NMatD0=    1 NMtDS0=    0 NMtDT0=    0
 Petite list used in FoFCou.
 Harris En= -26103.4146154878    
 JPrj=0 DoOrth=F DoCkMO=F.
 Leave Link  401 at Tue Nov 12 20:30:15 2019, MaxMem=   939524096 cpu:      4899.7
 (Enter /scr/programas/g09/l502.exe)
 Closed shell SCF:
 Using DIIS extrapolation, IDIIS=  1040.
 Integral symmetry usage will be decided dynamically.
 IVT=    17899397 IEndB=    17899397 NGot=   939524096 MDV=   927749052
 LenX=   927749052 LenY=   921875700
 Requested convergence on RMS density matrix=1.00D-03 within 500 cycles.
 Requested convergence on MAX density matrix=1.00D-01.
 Requested convergence on             energy=1.00D-01.
 No special actions if energy rises.
 Fock matrices will be formed incrementally for  20 cycles.

 Cycle   1  Pass 1  IDiag  1:
 FoFJK:  IHMeth= 1 ICntrl=     500 DoSepK=F KAlg= 0 I1Cent=   0 FoldK=F
 IRaf= 610000000 NMat=   1 IRICut=       1 DoRegI=T DoRafI=F ISym2E= 0.
 FoFCou: FMM=T IPFlag=           0 FMFlag=      100000 FMFlg1=        2001
         NFxFlg=           0 DoJE=T BraDBF=F KetDBF=F FulRan=T
         wScrn=  0.000000 ICntrl=     500 IOpCl=  0 I1Cent=           0 NGrid=           0
         NMat0=    1 NMatS0=      1 NMatT0=    0 NMatD0=    1 NMtDS0=    0 NMtDT0=    0
 Symmetry not used in FoFCou.
 FMM levels:  10  Number of levels for PrismC:   9
 Defaulting to unpruned grid for atomic number  78.
 Defaulting to unpruned grid for atomic number  78.
 Defaulting to unpruned grid for atomic number  78.
 Defaulting to unpruned grid for atomic number  78.
 Inv3:  Mode=1 IEnd=   189893808.
 Iteration    1 A*A^-1 deviation from unit magnitude is 2.13D-14 for   6553.
 Iteration    1 A*A^-1 deviation from orthogonality  is 9.52D-15 for   5444   2411.
 Iteration    1 A^-1*A deviation from unit magnitude is 2.15D-14 for   6553.
 Iteration    1 A^-1*A deviation from orthogonality  is 1.45D-09 for   4387   4320.
 Iteration    2 A*A^-1 deviation from unit magnitude is 1.05D-14 for     57.
 Iteration    2 A*A^-1 deviation from orthogonality  is 1.17D-14 for   5795    945.
 Iteration    2 A^-1*A deviation from unit magnitude is 2.00D-15 for   1850.
 Iteration    2 A^-1*A deviation from orthogonality  is 7.61D-16 for   4369    825.
 E= -26081.6234408408    
 DIIS: error= 1.61D-01 at cycle   1 NSaved=   1.
 NSaved= 1 IEnMin= 1 EnMin= -26081.6234408408     IErMin= 1 ErrMin= 1.61D-01
 ErrMax= 1.61D-01  0.00D+00 EMaxC= 1.00D-01 BMatC= 3.37D+02 BMatP= 3.37D+02
 IDIUse=3 WtCom= 0.00D+00 WtEn= 1.00D+00
 Coeff-Com:  0.100D+01
 Coeff-En:   0.100D+01
 Coeff:      0.100D+01
 Gap=     0.636 Goal=   None    Shift=    0.000
 GapD=    0.636 DampG=2.000 DampE=0.125 DampFc=0.2500 IDamp=-1.
 Damping current iteration by 2.50D-01
 RMSDP=2.37D-02 MaxDP=1.06D+01              OVMax= 7.36D-01

 Cycle   2  Pass 1  IDiag  1:
 RMSU=  5.73D-03    CP:  1.12D+00
 E= -26083.5283992162     Delta-E=       -1.904958375409 Rises=F Damp=T
 DIIS: error= 1.10D-01 at cycle   2 NSaved=   2.
 NSaved= 2 IEnMin= 2 EnMin= -26083.5283992162     IErMin= 2 ErrMin= 1.10D-01
 ErrMax= 1.10D-01  0.00D+00 EMaxC= 1.00D-01 BMatC= 1.61D+02 BMatP= 3.37D+02
 IDIUse=3 WtCom= 0.00D+00 WtEn= 1.00D+00
 Coeff-Com: -0.190D+01 0.290D+01
 Coeff-En:   0.170D+00 0.830D+00
 Coeff:      0.170D+00 0.830D+00
 Gap=    -0.048 Goal=   None    Shift=    0.000
 RMSDP=6.34D-03 MaxDP=2.14D+00 DE=-1.90D+00 OVMax= 8.22D-01

 Cycle   3  Pass 1  IDiag  1:
 RMSU=  5.02D-03    CP:  9.31D-01  4.68D-01
 E= -26085.4540556000     Delta-E=       -1.925656383733 Rises=F Damp=F
 DIIS: error= 7.02D-02 at cycle   3 NSaved=   3.
 NSaved= 3 IEnMin= 3 EnMin= -26085.4540556000     IErMin= 3 ErrMin= 7.02D-02
 ErrMax= 7.02D-02  0.00D+00 EMaxC= 1.00D-01 BMatC= 1.53D+01 BMatP= 1.61D+02
 IDIUse=3 WtCom= 2.98D-01 WtEn= 7.02D-01
 EnCoef did   100 forward-backward iterations
 Coeff-Com:  0.742D+00-0.840D+00 0.110D+01
 Coeff-En:   0.315D+00 0.625D-02 0.679D+00
 Coeff:      0.442D+00-0.246D+00 0.804D+00
 Gap=     0.380 Goal=   None    Shift=    0.000
 RMSDP=1.07D-02 MaxDP=1.73D+00 DE=-1.93D+00 OVMax= 7.05D-01

 Cycle   4  Pass 1  IDiag  1:
 RMSU=  8.29D-03    CP:  1.27D+00  6.92D-01  2.31D-03
 E= -26071.0642534901     Delta-E=       14.389802109872 Rises=F Damp=F
 DIIS: error= 3.99D-02 at cycle   4 NSaved=   4.
 NSaved= 4 IEnMin= 3 EnMin= -26085.4540556000     IErMin= 4 ErrMin= 3.99D-02
 ErrMax= 3.99D-02  0.00D+00 EMaxC= 1.00D-01 BMatC= 1.36D+01 BMatP= 1.53D+01
 IDIUse=3 WtCom= 6.01D-01 WtEn= 3.99D-01
 EnCoef did     6 forward-backward iterations
 Coeff-Com:  0.589D+00-0.714D+00 0.747D+00 0.378D+00
 Coeff-En:   0.261D+00 0.000D+00 0.652D+00 0.865D-01
 Coeff:      0.458D+00-0.429D+00 0.709D+00 0.262D+00
 Gap=    -0.030 Goal=   None    Shift=    0.000
 RMSDP=1.04D-02 MaxDP=1.68D+00 DE= 1.44D+01 OVMax= 9.04D-01

 Cycle   5  Pass 1  IDiag  1:
 RMSU=  2.12D-03    CP:  9.14D-01  3.16D-01  5.21D-01 -1.75D-02
 E= -26087.4892123272     Delta-E=      -16.424958837153 Rises=F Damp=F
 DIIS: error= 1.72D-02 at cycle   5 NSaved=   5.
 NSaved= 5 IEnMin= 5 EnMin= -26087.4892123272     IErMin= 5 ErrMin= 1.72D-02
 ErrMax= 1.72D-02  0.00D+00 EMaxC= 1.00D-01 BMatC= 1.13D+00 BMatP= 1.36D+01
 IDIUse=3 WtCom= 8.28D-01 WtEn= 1.72D-01
 EnCoef did     3 forward-backward iterations
 Coeff-Com:  0.333D-01-0.181D-01 0.218D+00 0.146D+00 0.621D+00
 Coeff-En:   0.000D+00 0.000D+00 0.117D+00 0.692D-01 0.814D+00
 Coeff:      0.276D-01-0.150D-01 0.200D+00 0.133D+00 0.654D+00
 Gap=     0.162 Goal=   None    Shift=    0.000
 RMSDP=3.31D-03 MaxDP=7.03D-01 DE=-1.64D+01 OVMax= 3.64D-01

 Cycle   6  Pass 1  IDiag  1:
 RMSU=  2.10D-03    CP:  9.59D-01  2.50D-01  4.95D-01  1.26D-01 -1.87D-02
 E= -26087.3486685767     Delta-E=        0.140543750531 Rises=F Damp=F
 DIIS: error= 9.16D-03 at cycle   6 NSaved=   6.
 NSaved= 6 IEnMin= 5 EnMin= -26087.4892123272     IErMin= 6 ErrMin= 9.16D-03
 ErrMax= 9.16D-03  0.00D+00 EMaxC= 1.00D-01 BMatC= 1.05D+00 BMatP= 1.13D+00
 IDIUse=3 WtCom= 9.08D-01 WtEn= 9.16D-02
 Coeff-Com: -0.790D-01 0.115D+00 0.411D-01 0.434D-01 0.503D+00 0.376D+00
 Coeff-En:   0.000D+00 0.000D+00 0.000D+00 0.000D+00 0.526D+00 0.474D+00
 Coeff:     -0.718D-01 0.105D+00 0.373D-01 0.394D-01 0.505D+00 0.385D+00
 Gap=     0.116 Goal=   None    Shift=    0.000
 RMSDP=2.01D-03 MaxDP=3.54D-01 DE= 1.41D-01 OVMax= 2.47D-01

 Cycle   7  Pass 1  IDiag  1:
 RMSU=  1.37D-03    CP:  9.40D-01  2.56D-01  5.19D-01  7.80D-02  4.43D-01
                    CP:  5.33D-01
 E= -26088.3831299766     Delta-E=       -1.034461399926 Rises=F Damp=F
 DIIS: error= 2.63D-03 at cycle   7 NSaved=   7.
 NSaved= 7 IEnMin= 7 EnMin= -26088.3831299766     IErMin= 7 ErrMin= 2.63D-03
 ErrMax= 2.63D-03  0.00D+00 EMaxC= 1.00D-01 BMatC= 9.25D-02 BMatP= 1.05D+00
 IDIUse=3 WtCom= 9.74D-01 WtEn= 2.63D-02
 Coeff-Com: -0.541D-01 0.754D-01-0.143D-02 0.367D-02 0.253D+00 0.253D+00
 Coeff-Com:  0.471D+00
 Coeff-En:   0.000D+00 0.000D+00 0.000D+00 0.000D+00 0.000D+00 0.512D-01
 Coeff-En:   0.949D+00
 Coeff:     -0.527D-01 0.734D-01-0.139D-02 0.357D-02 0.246D+00 0.247D+00
 Coeff:      0.484D+00
 Gap=     0.102 Goal=   None    Shift=    0.000
 RMSDP=9.32D-04 MaxDP=1.52D-01 DE=-1.03D+00 OVMax= 1.17D-01

 Cycle   8  Pass 1  IDiag  1:
 RMSU=  8.25D-04    CP:  9.47D-01  2.79D-01  5.22D-01  8.19D-02  5.50D-01
                    CP:  6.88D-01  9.37D-01
 E= -26088.4521910682     Delta-E=       -0.069061091548 Rises=F Damp=F
 DIIS: error= 1.55D-03 at cycle   8 NSaved=   8.
 NSaved= 8 IEnMin= 8 EnMin= -26088.4521910682     IErMin= 8 ErrMin= 1.55D-03
 ErrMax= 1.55D-03  0.00D+00 EMaxC= 1.00D-01 BMatC= 2.54D-02 BMatP= 9.25D-02
 IDIUse=3 WtCom= 9.84D-01 WtEn= 1.55D-02
 Coeff-Com: -0.139D-01 0.190D-01-0.284D-02-0.186D-02 0.786D-01 0.893D-01
 Coeff-Com:  0.348D+00 0.484D+00
 Coeff-En:   0.000D+00 0.000D+00 0.000D+00 0.000D+00 0.000D+00 0.000D+00
 Coeff-En:   0.265D+00 0.735D+00
 Coeff:     -0.137D-01 0.187D-01-0.279D-02-0.183D-02 0.774D-01 0.880D-01
 Coeff:      0.346D+00 0.488D+00
 Gap=     0.109 Goal=   None    Shift=    0.000
 RMSDP=1.57D-03 MaxDP=1.42D-01 DE=-6.91D-02 OVMax= 5.25D-02

 Cycle   9  Pass 1  IDiag  1:
 RMSU=  9.96D-04    CP:  9.69D-01  2.85D-01  5.49D-01  9.97D-02  6.80D-01
                    CP:  9.09D-01  1.45D+00  1.91D+00
 E= -26088.4720117201     Delta-E=       -0.019820651920 Rises=F Damp=F
 DIIS: error= 5.60D-04 at cycle   9 NSaved=   9.
 NSaved= 9 IEnMin= 9 EnMin= -26088.4720117201     IErMin= 9 ErrMin= 5.60D-04
 ErrMax= 5.60D-04  0.00D+00 EMaxC= 1.00D-01 BMatC= 5.85D-03 BMatP= 2.54D-02
 IDIUse=3 WtCom= 9.94D-01 WtEn= 5.60D-03
 Coeff-Com:  0.248D-02-0.348D-02 0.432D-03-0.175D-02 0.259D-01 0.297D-01
 Coeff-Com:  0.179D+00 0.357D+00 0.410D+00
 Coeff-En:   0.000D+00 0.000D+00 0.000D+00 0.000D+00 0.000D+00 0.000D+00
 Coeff-En:   0.000D+00 0.200D+00 0.800D+00
 Coeff:      0.246D-02-0.347D-02 0.430D-03-0.174D-02 0.257D-01 0.295D-01
 Coeff:      0.178D+00 0.356D+00 0.413D+00
 Gap=     0.103 Goal=   None    Shift=    0.000
 RMSDP=4.04D-03 MaxDP=3.76D-01 DE=-1.98D-02 OVMax= 1.90D-02

 Cycle  10  Pass 1  IDiag  1:
 RMSU=  1.73D-03    CP:  1.05D+00  3.36D-01  6.13D-01  1.49D-01  9.92D-01
                    CP:  1.45D+00  2.60D+00  3.00D+00  3.00D+00
 E= -26088.4774236940     Delta-E=       -0.005411973914 Rises=F Damp=F
 DIIS: error= 4.25D-04 at cycle  10 NSaved=  10.
 NSaved=10 IEnMin=10 EnMin= -26088.4774236940     IErMin=10 ErrMin= 4.25D-04
 ErrMax= 4.25D-04  0.00D+00 EMaxC= 1.00D-01 BMatC= 1.05D-03 BMatP= 5.85D-03
 IDIUse=3 WtCom= 9.96D-01 WtEn= 4.25D-03
 Coeff-Com:  0.233D-02-0.320D-02 0.992D-03-0.141D-02 0.149D-01 0.169D-01
 Coeff-Com:  0.109D+00 0.232D+00 0.313D+00 0.314D+00
 Coeff-En:   0.000D+00 0.000D+00 0.000D+00 0.000D+00 0.000D+00 0.000D+00
 Coeff-En:   0.000D+00 0.000D+00 0.639D-01 0.936D+00
 Coeff:      0.232D-02-0.318D-02 0.987D-03-0.141D-02 0.149D-01 0.168D-01
 Coeff:      0.109D+00 0.231D+00 0.312D+00 0.317D+00
 Gap=     0.103 Goal=   None    Shift=    0.000
 RMSDP=2.65D-02 MaxDP=3.15D+00 DE=-5.41D-03 OVMax= 5.20D-03

 Cycle  11  Pass 1  IDiag  1:
 RMSU=  2.23D-02    CP:  1.48D+00  6.48D-01  9.70D-01  3.99D-01  2.75D+00
                    CP:  3.00D+00  3.00D+00  3.00D+00  3.00D+00  3.00D+00
 E= -26088.4791060616     Delta-E=       -0.001682367620 Rises=F Damp=F
 DIIS: error= 1.61D-03 at cycle  11 NSaved=  11.
 NSaved=11 IEnMin=11 EnMin= -26088.4791060616     IErMin=10 ErrMin= 4.25D-04
 ErrMax= 1.61D-03  0.00D+00 EMaxC= 1.00D-01 BMatC= 4.06D-03 BMatP= 1.05D-03
 IDIUse=3 WtCom= 9.96D-01 WtEn= 4.25D-03
 Coeff-Com:  0.302D-02-0.412D-02 0.128D-02-0.146D-02 0.125D-01 0.143D-01
 Coeff-Com:  0.101D+00 0.226D+00 0.334D+00 0.489D+00-0.175D+00
 Coeff-En:   0.000D+00 0.000D+00 0.000D+00 0.000D+00 0.000D+00 0.000D+00
 Coeff-En:   0.000D+00 0.000D+00 0.000D+00 0.000D+00 0.100D+01
 Coeff:      0.301D-02-0.411D-02 0.127D-02-0.146D-02 0.125D-01 0.142D-01
 Coeff:      0.100D+00 0.225D+00 0.333D+00 0.487D+00-0.170D+00
 Gap=     0.102 Goal=   None    Shift=    0.000
 RMSDP=2.21D-02 MaxDP=2.69D+00 DE=-1.68D-03 OVMax= 3.98D-03

 Cycle  12  Pass 1  IDiag  1:
 RMSU=  1.96D-03    CP:  1.13D+00  3.98D-01  6.75D-01  1.91D-01  1.30D+00
                    CP:  1.89D+00  3.00D+00  3.00D+00  3.00D+00  2.70D+00
                    CP:  8.26D-02
 E= -26088.4780317852     Delta-E=        0.001074276406 Rises=F Damp=F
 DIIS: error= 6.96D-04 at cycle  12 NSaved=  12.
 NSaved=12 IEnMin=11 EnMin= -26088.4791060616     IErMin=10 ErrMin= 4.25D-04
 ErrMax= 6.96D-04  0.00D+00 EMaxC= 1.00D-01 BMatC= 1.13D-03 BMatP= 1.05D-03
 IDIUse=3 WtCom= 9.96D-01 WtEn= 4.25D-03
 Rare condition: small coef for last iteration:  0.000D+00
 Coeff-Com:  0.193D-02-0.260D-02 0.117D-02-0.122D-02 0.877D-02 0.978D-02
 Coeff-Com:  0.698D-01 0.160D+00 0.249D+00 0.458D+00-0.346D+00 0.391D+00
 Coeff-En:   0.000D+00 0.000D+00 0.000D+00 0.000D+00 0.000D+00 0.000D+00
 Coeff-En:   0.000D+00 0.000D+00 0.000D+00 0.127D+00 0.000D+00 0.873D+00
 Coeff:      0.193D-02-0.260D-02 0.117D-02-0.122D-02 0.877D-02 0.978D-02
 Coeff:      0.698D-01 0.160D+00 0.249D+00 0.458D+00-0.346D+00 0.391D+00
 Gap=     0.103 Goal=   None    Shift=    0.000
 RMSDP=8.88D-03 MaxDP=1.20D+00 DE= 1.07D-03 OVMax= 2.14D-03

 Cycle  13  Pass 1  IDiag  1:
 RMSU=  2.71D-03    CP:  1.27D+00  5.06D-01  7.79D-01  2.65D-01  1.81D+00
                    CP:  2.59D+00  3.00D+00  3.00D+00  3.00D+00  3.00D+00
                    CP:  4.23D-01  1.47D+00
 E= -26088.4785717424     Delta-E=       -0.000539957146 Rises=F Damp=F
 DIIS: error= 1.09D-03 at cycle  13 NSaved=  13.
 NSaved=13 IEnMin=11 EnMin= -26088.4791060616     IErMin=10 ErrMin= 4.25D-04
 ErrMax= 1.09D-03  0.00D+00 EMaxC= 1.00D-01 BMatC= 2.00D-03 BMatP= 1.05D-03
 IDIUse=3 WtCom= 9.96D-01 WtEn= 4.25D-03
 Coeff-Com:  0.212D-02-0.285D-02 0.135D-02-0.132D-02 0.871D-02 0.989D-02
 Coeff-Com:  0.723D-01 0.169D+00 0.268D+00 0.497D+00-0.191D+00 0.479D+00
 Coeff-Com: -0.311D+00
 Coeff-En:   0.000D+00 0.000D+00 0.000D+00 0.000D+00 0.000D+00 0.000D+00
 Coeff-En:   0.000D+00 0.000D+00 0.000D+00 0.000D+00 0.000D+00 0.000D+00
 Coeff-En:   0.100D+01
 Coeff:      0.211D-02-0.283D-02 0.134D-02-0.131D-02 0.867D-02 0.985D-02
 Coeff:      0.720D-01 0.168D+00 0.266D+00 0.494D+00-0.190D+00 0.477D+00
 Coeff:     -0.305D+00
 Gap=     0.102 Goal=   None    Shift=    0.000
 RMSDP=4.25D-03 MaxDP=6.23D-01 DE=-5.40D-04 OVMax= 1.05D-03

 Cycle  14  Pass 1  IDiag  1:
 RMSU=  9.44D-04    CP:  1.22D+00  4.64D-01  7.48D-01  2.35D-01  1.67D+00
                    CP:  2.40D+00  3.00D+00  3.00D+00  3.00D+00  3.00D+00
                    CP:  2.84D-01  1.09D+00  8.29D-02
 E= -26088.4783546015     Delta-E=        0.000217140871 Rises=F Damp=F
 DIIS: error= 8.72D-04 at cycle  14 NSaved=  14.
 NSaved=14 IEnMin=11 EnMin= -26088.4791060616     IErMin=10 ErrMin= 4.25D-04
 ErrMax= 8.72D-04  0.00D+00 EMaxC= 1.00D-01 BMatC= 1.36D-03 BMatP= 1.05D-03
 IDIUse=3 WtCom= 9.96D-01 WtEn= 4.25D-03
 Rare condition: small coef for last iteration:  0.000D+00
 Coeff-Com:  0.171D-02-0.228D-02 0.118D-02-0.120D-02 0.777D-02 0.856D-02
 Coeff-Com:  0.622D-01 0.146D+00 0.233D+00 0.443D+00-0.216D+00 0.481D+00
 Coeff-Com: -0.622D+00 0.458D+00
 Coeff-En:   0.000D+00 0.000D+00 0.000D+00 0.000D+00 0.000D+00 0.000D+00
 Coeff-En:   0.000D+00 0.000D+00 0.000D+00 0.000D+00 0.000D+00 0.000D+00
 Coeff-En:   0.000D+00 0.100D+01
 Coeff:      0.171D-02-0.228D-02 0.118D-02-0.120D-02 0.777D-02 0.856D-02
 Coeff:      0.622D-01 0.146D+00 0.233D+00 0.443D+00-0.216D+00 0.481D+00
 Coeff:     -0.622D+00 0.458D+00
 Gap=     0.103 Goal=   None    Shift=    0.000
 RMSDP=5.81D-03 MaxDP=6.94D-01 DE= 2.17D-04 OVMax= 1.10D-03

 Cycle  15  Pass 1  IDiag  1:
 RMSU=  8.40D-04    CP:  1.30D+00  5.19D-01  8.22D-01  2.80D-01  2.07D+00
                    CP:  3.00D+00  3.00D+00  3.00D+00  3.00D+00  3.00D+00
                    CP:  5.13D-01  7.00D-01 -9.79D-02  2.55D+00
 E= -26088.4784789615     Delta-E=       -0.000124360005 Rises=F Damp=F
 DIIS: error= 9.66D-04 at cycle  15 NSaved=  15.
 NSaved=15 IEnMin=11 EnMin= -26088.4791060616     IErMin=10 ErrMin= 4.25D-04
 ErrMax= 9.66D-04  0.00D+00 EMaxC= 1.00D-01 BMatC= 1.62D-03 BMatP= 1.05D-03
 IDIUse=3 WtCom= 9.96D-01 WtEn= 4.25D-03
 Coeff-Com:  0.161D-02-0.216D-02 0.104D-02-0.104D-02 0.736D-02 0.797D-02
 Coeff-Com:  0.571D-01 0.133D+00 0.211D+00 0.423D+00-0.422D+00 0.449D+00
 Coeff-Com: -0.348D+00 0.262D-01 0.457D+00
 Coeff-En:   0.000D+00 0.000D+00 0.000D+00 0.000D+00 0.000D+00 0.000D+00
 Coeff-En:   0.000D+00 0.000D+00 0.000D+00 0.000D+00 0.000D+00 0.000D+00
 Coeff-En:   0.000D+00 0.000D+00 0.100D+01
 Coeff:      0.161D-02-0.215D-02 0.104D-02-0.104D-02 0.733D-02 0.793D-02
 Coeff:      0.569D-01 0.132D+00 0.210D+00 0.421D+00-0.420D+00 0.447D+00
 Coeff:     -0.347D+00 0.261D-01 0.460D+00
 Gap=     0.103 Goal=   None    Shift=    0.000
 RMSDP=7.84D-03 MaxDP=1.03D+00 DE=-1.24D-04 OVMax= 1.31D-03

 Cycle  16  Pass 1  IDiag  1:
 RMSU=  1.98D-03    CP:  1.41D+00  5.95D-01  9.16D-01  3.41D-01  2.56D+00
                    CP:  3.00D+00  3.00D+00  3.00D+00  3.00D+00  3.00D+00
                    CP:  8.36D-01  3.61D-01 -1.34D-01  3.00D+00  1.86D+00
 E= -26088.4786445748     Delta-E=       -0.000165613252 Rises=F Damp=F
 DIIS: error= 1.19D-03 at cycle  16 NSaved=  16.
 NSaved=16 IEnMin=11 EnMin= -26088.4791060616     IErMin=10 ErrMin= 4.25D-04
 ErrMax= 1.19D-03  0.00D+00 EMaxC= 1.00D-01 BMatC= 2.18D-03 BMatP= 1.05D-03
 IDIUse=3 WtCom= 9.96D-01 WtEn= 4.25D-03
 Coeff-Com:  0.156D-02-0.209D-02 0.104D-02-0.108D-02 0.684D-02 0.785D-02
 Coeff-Com:  0.574D-01 0.134D+00 0.218D+00 0.500D+00-0.728D+00 0.561D+00
 Coeff-Com:  0.252D+00-0.401D+00-0.613D+00 0.100D+01
 Coeff-En:   0.000D+00 0.000D+00 0.000D+00 0.000D+00 0.000D+00 0.000D+00
 Coeff-En:   0.000D+00 0.000D+00 0.000D+00 0.000D+00 0.000D+00 0.000D+00
 Coeff-En:   0.000D+00 0.000D+00 0.000D+00 0.100D+01
 Coeff:      0.155D-02-0.208D-02 0.104D-02-0.108D-02 0.681D-02 0.782D-02
 Coeff:      0.572D-01 0.134D+00 0.217D+00 0.497D+00-0.725D+00 0.559D+00
 Coeff:      0.251D+00-0.399D+00-0.610D+00 0.100D+01
 Gap=     0.103 Goal=   None    Shift=    0.000
 RMSDP=6.50D-03 MaxDP=8.71D-01 DE=-1.66D-04 OVMax= 9.76D-04

 Cycle  17  Pass 1  IDiag  1:
 RMSU=  1.34D-03    CP:  1.31D+00  5.24D-01  8.35D-01  2.90D-01  2.13D+00
                    CP:  3.00D+00  3.00D+00  3.00D+00  3.00D+00  3.00D+00
                    CP:  5.68D-01  7.85D-01  1.52D-01  3.00D+00  2.07D+00
                    CP:  6.38D-01
 E= -26088.4784737631     Delta-E=        0.000170811647 Rises=F Damp=F
 DIIS: error= 9.69D-04 at cycle  17 NSaved=  17.
 NSaved=17 IEnMin=11 EnMin= -26088.4791060616     IErMin=10 ErrMin= 4.25D-04
 ErrMax= 9.69D-04  0.00D+00 EMaxC= 1.00D-01 BMatC= 1.59D-03 BMatP= 1.05D-03
 IDIUse=3 WtCom= 9.96D-01 WtEn= 4.25D-03
 Rare condition: small coef for last iteration:  0.000D+00
 Coeff-Com:  0.151D-02-0.201D-02 0.106D-02-0.109D-02 0.662D-02 0.760D-02
 Coeff-Com:  0.557D-01 0.131D+00 0.213D+00 0.495D+00-0.681D+00 0.588D+00
 Coeff-Com:  0.198D+00-0.196D+00-0.131D+01 0.990D+00 0.504D+00
 Coeff-En:   0.000D+00 0.000D+00 0.000D+00 0.000D+00 0.000D+00 0.000D+00
 Coeff-En:   0.000D+00 0.000D+00 0.000D+00 0.000D+00 0.000D+00 0.000D+00
 Coeff-En:   0.000D+00 0.000D+00 0.000D+00 0.000D+00 0.100D+01
 Coeff:      0.151D-02-0.201D-02 0.106D-02-0.109D-02 0.662D-02 0.760D-02
 Coeff:      0.557D-01 0.131D+00 0.213D+00 0.495D+00-0.681D+00 0.588D+00
 Coeff:      0.198D+00-0.196D+00-0.131D+01 0.990D+00 0.504D+00
 Gap=     0.103 Goal=   None    Shift=    0.000
 RMSDP=2.38D-03 MaxDP=2.39D-01 DE= 1.71D-04 OVMax= 3.88D-04

 Cycle  18  Pass 1  IDiag  1:
 RMSU=  9.07D-04    CP:  1.32D+00  5.31D-01  8.41D-01  2.90D-01  2.18D+00
                    CP:  3.00D+00  3.00D+00  3.00D+00  3.00D+00  3.00D+00
                    CP:  6.20D-01  1.00D+00  4.79D-01  3.00D+00  2.42D+00
                    CP:  1.42D+00  1.17D+00
 E= -26088.4784249446     Delta-E=        0.000048818467 Rises=F Damp=F
 DIIS: error= 9.51D-04 at cycle  18 NSaved=  18.
 NSaved=18 IEnMin=11 EnMin= -26088.4791060616     IErMin=10 ErrMin= 4.25D-04
 ErrMax= 9.51D-04  0.00D+00 EMaxC= 1.00D-01 BMatC= 1.46D-03 BMatP= 1.05D-03
 IDIUse=3 WtCom= 9.96D-01 WtEn= 4.25D-03
 Rare condition: small coef for last iteration:  0.000D+00
 Coeff-Com:  0.159D-02-0.212D-02 0.111D-02-0.111D-02 0.679D-02 0.767D-02
 Coeff-Com:  0.566D-01 0.133D+00 0.217D+00 0.475D+00-0.481D+00 0.555D+00
 Coeff-Com: -0.312D-01 0.749D-01-0.143D+01 0.626D+00 0.288D+00 0.507D+00
 Coeff-En:   0.000D+00 0.000D+00 0.000D+00 0.000D+00 0.000D+00 0.000D+00
 Coeff-En:   0.000D+00 0.000D+00 0.000D+00 0.000D+00 0.000D+00 0.000D+00
 Coeff-En:   0.000D+00 0.000D+00 0.000D+00 0.000D+00 0.000D+00 0.100D+01
 Coeff:      0.159D-02-0.212D-02 0.111D-02-0.111D-02 0.679D-02 0.767D-02
 Coeff:      0.566D-01 0.133D+00 0.217D+00 0.475D+00-0.481D+00 0.555D+00
 Coeff:     -0.312D-01 0.749D-01-0.143D+01 0.626D+00 0.288D+00 0.507D+00
 Gap=     0.103 Goal=   None    Shift=    0.000
 RMSDP=1.73D-03 MaxDP=2.54D-01 DE= 4.88D-05 OVMax= 2.70D-04

 Cycle  19  Pass 1  IDiag  1:
 RMSU=  5.17D-04    CP:  1.29D+00  5.05D-01  8.15D-01  2.76D-01  2.06D+00
                    CP:  2.91D+00  3.00D+00  3.00D+00  3.00D+00  3.00D+00
                    CP:  5.56D-01  1.09D+00  5.82D-01  3.00D+00  2.89D+00
                    CP:  1.38D+00  1.36D+00  1.07D+00
 E= -26088.4783768747     Delta-E=        0.000048069982 Rises=F Damp=F
 DIIS: error= 8.75D-04 at cycle  19 NSaved=  19.
 NSaved=19 IEnMin=11 EnMin= -26088.4791060616     IErMin=10 ErrMin= 4.25D-04
 ErrMax= 8.75D-04  0.00D+00 EMaxC= 1.00D-01 BMatC= 1.28D-03 BMatP= 1.05D-03
 IDIUse=3 WtCom= 9.96D-01 WtEn= 4.25D-03
 Rare condition: small coef for last iteration:  0.000D+00
 Coeff-Com:  0.148D-02-0.198D-02 0.106D-02-0.108D-02 0.671D-02 0.738D-02
 Coeff-Com:  0.542D-01 0.128D+00 0.207D+00 0.428D+00-0.319D+00 0.478D+00
 Coeff-Com: -0.187D+00 0.219D+00-0.999D+00 0.226D+00-0.299D+00 0.392D+00
 Coeff-Com:  0.657D+00
 Coeff-En:   0.000D+00 0.000D+00 0.000D+00 0.000D+00 0.000D+00 0.000D+00
 Coeff-En:   0.000D+00 0.000D+00 0.000D+00 0.000D+00 0.000D+00 0.000D+00
 Coeff-En:   0.000D+00 0.000D+00 0.000D+00 0.000D+00 0.000D+00 0.000D+00
 Coeff-En:   0.100D+01
 Coeff:      0.148D-02-0.198D-02 0.106D-02-0.108D-02 0.671D-02 0.738D-02
 Coeff:      0.542D-01 0.128D+00 0.207D+00 0.428D+00-0.319D+00 0.478D+00
 Coeff:     -0.187D+00 0.219D+00-0.999D+00 0.226D+00-0.299D+00 0.392D+00
 Coeff:      0.657D+00
 Gap=     0.103 Goal=   None    Shift=    0.000
 RMSDP=3.71D-03 MaxDP=5.49D-01 DE= 4.81D-05 OVMax= 6.37D-04

 Cycle  20  Pass 1  IDiag  1:
 RMSU=  7.18D-04    CP:  1.34D+00  5.34D-01  8.51D-01  3.00D-01  2.26D+00
                    CP:  3.00D+00  3.00D+00  3.00D+00  3.00D+00  3.00D+00
                    CP:  6.89D-01  1.02D+00  6.72D-01  3.00D+00  3.00D+00
                    CP:  2.15D+00  1.58D+00  2.24D+00  1.13D+00
 E= -26088.4783913162     Delta-E=       -0.000014441532 Rises=F Damp=F
 DIIS: error= 9.35D-04 at cycle  20 NSaved=  20.
 NSaved=20 IEnMin=11 EnMin= -26088.4791060616     IErMin=10 ErrMin= 4.25D-04
 ErrMax= 9.35D-04  0.00D+00 EMaxC= 1.00D-01 BMatC= 1.36D-03 BMatP= 1.05D-03
 IDIUse=3 WtCom= 9.96D-01 WtEn= 4.25D-03
 Coeff-Com:  0.149D-02-0.198D-02 0.106D-02-0.108D-02 0.671D-02 0.738D-02
 Coeff-Com:  0.543D-01 0.128D+00 0.208D+00 0.427D+00-0.313D+00 0.475D+00
 Coeff-Com: -0.182D+00 0.221D+00-0.946D+00 0.205D+00-0.324D+00 0.319D+00
 Coeff-Com:  0.631D+00 0.842D-01
 Coeff-En:   0.000D+00 0.000D+00 0.000D+00 0.000D+00 0.000D+00 0.000D+00
 Coeff-En:   0.000D+00 0.000D+00 0.000D+00 0.000D+00 0.000D+00 0.000D+00
 Coeff-En:   0.000D+00 0.000D+00 0.000D+00 0.000D+00 0.000D+00 0.000D+00
 Coeff-En:   0.000D+00 0.100D+01
 Coeff:      0.148D-02-0.197D-02 0.106D-02-0.108D-02 0.669D-02 0.735D-02
 Coeff:      0.540D-01 0.127D+00 0.207D+00 0.425D+00-0.312D+00 0.473D+00
 Coeff:     -0.182D+00 0.220D+00-0.942D+00 0.205D+00-0.322D+00 0.318D+00
 Coeff:      0.628D+00 0.881D-01
 Gap=     0.103 Goal=   None    Shift=    0.000
 RMSDP=7.21D-04 MaxDP=1.11D-01 DE=-1.44D-05 OVMax= 1.18D-04

 Cycle  21  Pass 1  IDiag  1:
 Restarting incremental Fock formation.
 E= -26088.4775118914     Delta-E=        0.000879424748 Rises=F Damp=F
 DIIS: error= 3.07D-04 at cycle  21 NSaved=  20.
 NSaved=20 IEnMin=10 EnMin= -26088.4791060616     IErMin=20 ErrMin= 3.07D-04
 ErrMax= 3.07D-04  0.00D+00 EMaxC= 1.00D-01 BMatC= 1.42D-04 BMatP= 1.05D-03
 IDIUse=3 WtCom= 9.97D-01 WtEn= 3.07D-03
 Rare condition: small coef for last iteration:  0.000D+00
 Coeff-Com:  0.904D-03-0.114D-02 0.114D-02 0.399D-02 0.297D-02 0.202D-01
 Coeff-Com:  0.521D-01 0.919D-01 0.239D+00-0.370D+00 0.259D+00 0.308D+00
 Coeff-Com: -0.386D+00-0.158D+01 0.486D+00 0.329D+00 0.553D+00 0.164D+01
 Coeff-Com: -0.111D+01 0.458D+00
 Coeff-En:   0.000D+00 0.000D+00 0.000D+00 0.000D+00 0.000D+00 0.000D+00
 Coeff-En:   0.000D+00 0.000D+00 0.441D+00 0.000D+00 0.000D+00 0.000D+00
 Coeff-En:   0.000D+00 0.000D+00 0.000D+00 0.000D+00 0.000D+00 0.000D+00
 Coeff-En:   0.000D+00 0.559D+00
 Coeff:      0.904D-03-0.114D-02 0.114D-02 0.399D-02 0.297D-02 0.202D-01
 Coeff:      0.521D-01 0.919D-01 0.239D+00-0.370D+00 0.259D+00 0.308D+00
 Coeff:     -0.386D+00-0.158D+01 0.486D+00 0.329D+00 0.553D+00 0.164D+01
 Coeff:     -0.111D+01 0.458D+00
 Gap=     0.103 Goal=   None    Shift=    0.000
 RMSDP=7.81D-03 MaxDP=7.80D-01 DE= 8.79D-04 OVMax= 1.40D-03

 Cycle  22  Pass 1  IDiag  1:
 RMSU=  7.09D-03    CP:  8.98D-01
 E= -26088.4776572037     Delta-E=       -0.000145312202 Rises=F Damp=F
 DIIS: error= 2.27D-04 at cycle  22 NSaved=  20.
 NSaved=20 IEnMin= 9 EnMin= -26088.4791060616     IErMin=20 ErrMin= 2.27D-04
 ErrMax= 2.27D-04  0.00D+00 EMaxC= 1.00D-01 BMatC= 9.50D-05 BMatP= 1.42D-04
 IDIUse=3 WtCom= 9.98D-01 WtEn= 2.27D-03
 EnCoef did   100 forward-backward iterations
 Coeff-Com: -0.681D-05 0.286D-04 0.244D-02 0.281D-02 0.184D-01 0.436D-01
 Coeff-Com:  0.725D-01 0.207D+00-0.427D+00 0.278D+00 0.276D+00-0.341D+00
 Coeff-Com: -0.155D+01 0.527D+00 0.623D+00 0.601D+00 0.943D+00-0.879D+00
 Coeff-Com: -0.169D+00 0.773D+00
 Coeff-En:   0.000D+00 0.000D+00 0.000D+00 0.000D+00 0.000D+00 0.000D+00
 Coeff-En:   0.000D+00 0.127D+00 0.000D+00 0.871D+00 0.000D+00 0.000D+00
 Coeff-En:   0.000D+00 0.000D+00 0.000D+00 0.000D+00 0.000D+00 0.000D+00
 Coeff-En:   0.000D+00 0.266D-02
 Coeff:     -0.679D-05 0.285D-04 0.243D-02 0.281D-02 0.184D-01 0.435D-01
 Coeff:      0.723D-01 0.206D+00-0.426D+00 0.279D+00 0.276D+00-0.340D+00
 Coeff:     -0.155D+01 0.526D+00 0.622D+00 0.600D+00 0.941D+00-0.877D+00
 Coeff:     -0.169D+00 0.771D+00
 Gap=     0.103 Goal=   None    Shift=    0.000
 RMSDP=4.44D-03 MaxDP=3.14D-01 DE=-1.45D-04 OVMax= 7.76D-04

 Cycle  23  Pass 1  IDiag  1:
 RMSU=  2.94D-03    CP:  8.81D-01  1.46D+00
 E= -26088.4777611565     Delta-E=       -0.000103952851 Rises=F Damp=F
 DIIS: error= 3.32D-04 at cycle  23 NSaved=  20.
 NSaved=20 IEnMin= 8 EnMin= -26088.4791060616     IErMin=19 ErrMin= 2.27D-04
 ErrMax= 3.32D-04  0.00D+00 EMaxC= 1.00D-01 BMatC= 1.41D-04 BMatP= 9.50D-05
 IDIUse=3 WtCom= 9.98D-01 WtEn= 2.27D-03
 EnCoef did   100 forward-backward iterations
 Coeff-Com:  0.642D-04 0.238D-02 0.277D-02 0.183D-01 0.430D-01 0.714D-01
 Coeff-Com:  0.210D+00-0.453D+00 0.288D+00 0.293D+00-0.355D+00-0.159D+01
 Coeff-Com:  0.569D+00 0.633D+00 0.654D+00 0.884D+00-0.882D+00-0.188D+00
 Coeff-Com:  0.691D+00 0.113D+00
 Coeff-En:   0.000D+00 0.000D+00 0.000D+00 0.000D+00 0.000D+00 0.000D+00
 Coeff-En:   0.125D+00 0.000D+00 0.868D+00 0.000D+00 0.000D+00 0.000D+00
 Coeff-En:   0.000D+00 0.000D+00 0.000D+00 0.000D+00 0.000D+00 0.000D+00
 Coeff-En:   0.143D-02 0.607D-02
 Coeff:      0.641D-04 0.237D-02 0.276D-02 0.182D-01 0.430D-01 0.712D-01
 Coeff:      0.209D+00-0.452D+00 0.290D+00 0.293D+00-0.355D+00-0.159D+01
 Coeff:      0.568D+00 0.632D+00 0.652D+00 0.882D+00-0.880D+00-0.188D+00
 Coeff:      0.689D+00 0.113D+00
 Gap=     0.103 Goal=   None    Shift=    0.000
 RMSDP=6.76D-04 MaxDP=4.76D-02 DE=-1.04D-04 OVMax= 1.14D-04

 Error on total polarization charges =  0.02499
 SCF Done:  E(RPBE-PBE) =  -26088.4777612     A.U. after   23 cycles
            NFock= 23  Conv=0.68D-03     -V/T= 2.0160
 KE= 2.567860572142D+04 PE=-9.470537416610D+04 EE= 2.641236302875D+04
 Leave Link  502 at Wed Nov 13 11:50:19 2019, MaxMem=   939524096 cpu:    220219.3
 (Enter /scr/programas/g09/l801.exe)
 Range of M.O.s used for correlation:     1  2257
 NBasis=  2257 NAE=   284 NBE=   284 NFC=     0 NFV=     0
 NROrb=   2257 NOA=   284 NOB=   284 NVA=  1973 NVB=  1973

 **** Warning!!: The largest alpha MO coefficient is  0.81290581D+02

 Leave Link  801 at Wed Nov 13 11:50:20 2019, MaxMem=   939524096 cpu:         0.8
 (Enter /scr/programas/g09/l1002.exe)
 Minotr:  Closed shell wavefunction.
 NEqPCM:  Using equilibrium solvation (IEInf=0, Eps=   8.9300, EpsInf=   2.0283)
          Direct CPHF calculation.
          Differentiating once with respect to magnetic field using GIAOs.
          Electric field/nuclear overlap derivatives assumed to be zero.
          Requested convergence is 1.0D-08 RMS, and 1.0D-07 maximum.
          Secondary convergence is 1.0D-12 RMS, and 1.0D-12 maximum.
          NewPWx=T KeepS1=F KeepF1=F KeepIn=T MapXYZ=F SortEE=F KeepMc=T.
          MDV=     939520923 using IRadAn=       2.
 Defaulting to unpruned grid for atomic number  78.
 Defaulting to unpruned grid for atomic number  50.
 Generate precomputed XC quadrature information.
          Solving linear equations simultaneously, MaxMat=      72.
 FoFJK:  IHMeth= 1 ICntrl=    6127 DoSepK=F KAlg= 0 I1Cent=   0 FoldK=F
 IRaf=         1 NMat=   1 IRICut=       1 DoRegI=T DoRafI=F ISym2E= 0.
 Defaulting to unpruned grid for atomic number  78.
 Defaulting to unpruned grid for atomic number  78.
 Defaulting to unpruned grid for atomic number  78.
 Defaulting to unpruned grid for atomic number  78.
          There are     3 degrees of freedom in the 1st order CPHF.  IDoFFX=0 NUNeed=     3.
      3 vectors produced by pass  0 Test12= 1.87D-11 3.33D-08 XBig12= 2.44D+03 3.15D+00.
 AX will form     3 AO Fock derivatives at one time.
 InvSVY:  IOpt=1 It=  1 EMax= 0.00D+00
 Solved reduced A of dimension     3 with     3 vectors.
 Calculating GIAO nuclear magnetic shielding tensors.
 SCF GIAO Magnetic shielding tensor (ppm):
      1  Pt   Isotropic =  3071.2730   Anisotropy =  1912.8409
   XX=  2959.9381   YX=  -241.3956   ZX=   147.2025
   XY=  -374.7277   YY=  4265.3453   ZY=  -236.9835
   XZ=    88.0760   YZ=   -56.2569   ZZ=  1988.5356
   Eigenvalues:  1969.0657  2898.2530  4346.5002
      2  C    Isotropic =     6.3799   Anisotropy =   202.0659
   XX=   136.6583   YX=    30.2665   ZX=   -28.7701
   XY=     5.6554   YY=   -53.5108   ZY=    -7.0559
   XZ=   -17.6151   YZ=    -6.9738   ZZ=   -64.0077
   Eigenvalues:   -68.4837   -53.4671   141.0905
      3  C    Isotropic =    36.0985   Anisotropy =   171.0240
   XX=   148.8550   YX=    10.5920   ZX=    -5.7509
   XY=    11.1724   YY=    20.4904   ZY=    21.8355
   XZ=   -16.4242   YZ=    42.5614   ZZ=   -61.0497
   Eigenvalues:   -73.1212    31.3022   150.1146
      4  C    Isotropic =    36.3977   Anisotropy =   177.8812
   XX=   151.5396   YX=    15.4217   ZX=   -20.3607
   XY=    11.5456   YY=     2.3263   ZY=   -42.3945
   XZ=   -10.3587   YZ=   -66.3420   ZZ=   -44.6727
   Eigenvalues:   -80.5316    34.7396   154.9852
      5  C    Isotropic =    50.4729   Anisotropy =   173.6388
   XX=   164.8802   YX=    16.7820   ZX=     3.2424
   XY=     9.9678   YY=     2.9809   ZY=   -60.7629
   XZ=    -7.6067   YZ=   -44.9321   ZZ=   -16.4423
   Eigenvalues:   -60.6744    45.8611   166.2321
      6  H    Isotropic =    23.7998   Anisotropy =    10.5549
   XX=    22.8697   YX=    -1.8464   ZX=    -0.7767
   XY=    -2.4691   YY=    27.6195   ZY=     5.5683
   XZ=     1.1170   YZ=     4.7456   ZZ=    20.9102
   Eigenvalues:    17.8226    22.7404    30.8364
      7  C    Isotropic =    51.5384   Anisotropy =   180.3025
   XX=   167.2320   YX=    20.6743   ZX=   -30.7379
   XY=    17.1213   YY=    27.2543   ZY=    43.2425
   XZ=   -19.6797   YZ=    32.3068   ZZ=   -39.8710
   Eigenvalues:   -60.9878    43.8630   171.7401
[...]
 Alpha virt. eigenvalues --    2.39567   2.39668   2.40035   2.40286   2.40857
 Alpha virt. eigenvalues --    2.41160   2.41266   2.41437   2.41664   2.41840
 Alpha virt. eigenvalues --    2.42302   2.42562   2.42998   2.43304   2.44025
 Alpha virt. eigenvalues --    2.44146   2.44358   2.44516   2.45047   2.45307
 Alpha virt. eigenvalues --    2.45614   2.45867   2.46125   2.46649   2.46997
 Alpha virt. eigenvalues --    2.47171   2.47464   2.48231   2.48646   2.49114
 Alpha virt. eigenvalues --    2.49153   2.49342   2.49645   2.50217   2.50342
 Alpha virt. eigenvalues --    2.50625   2.50803   2.51334   2.51364   2.51587
 Alpha virt. eigenvalues --    2.52173   2.52708   2.53167   2.53319   2.54067
 Alpha virt. eigenvalues --    2.54225   2.54443   2.54982   2.55076   2.55189
 Alpha virt. eigenvalues --    2.55722   2.56021   2.56648   2.56911   2.57609
 Alpha virt. eigenvalues --    2.57727   2.58494   2.58669   2.58758   2.59005
 Alpha virt. eigenvalues --    2.59695   2.59900   2.60574   2.60690   2.60966
 Alpha virt. eigenvalues --    2.61224   2.61408   2.61675   2.62241   2.62448
 Alpha virt. eigenvalues --    2.62888   2.63251   2.63506   2.63635   2.63839
 Alpha virt. eigenvalues --    2.64271   2.64493   2.64944   2.65238   2.65579
 Alpha virt. eigenvalues --    2.65988   2.66742   2.66853   2.66906   2.67197
 Alpha virt. eigenvalues --    2.67441   2.67689   2.68015   2.68459   2.68657
 Alpha virt. eigenvalues --    2.68672   2.69184   2.69317   2.69778   2.70057
 Alpha virt. eigenvalues --    2.70326   2.70608   2.70664   2.71043   2.71334
 Alpha virt. eigenvalues --    2.71855   2.71905   2.72302   2.72412   2.72905
 Alpha virt. eigenvalues --    2.73375   2.73544   2.74069   2.74201   2.74818
 Alpha virt. eigenvalues --    2.75018   2.75110   2.75434   2.75812   2.75896
 Alpha virt. eigenvalues --    2.76127   2.76387   2.76625   2.76697   2.77041
 Alpha virt. eigenvalues --    2.77150   2.77383   2.77809   2.77956   2.78258
 Alpha virt. eigenvalues --    2.78539   2.78726   2.78827   2.79469   2.79801
 Alpha virt. eigenvalues --    2.79996   2.80406   2.80800   2.81170   2.81663
 Alpha virt. eigenvalues --    2.82169   2.82268   2.82898   2.83425   2.83491
 Alpha virt. eigenvalues --    2.83747   2.84014   2.84379   2.84596   2.85310
 Alpha virt. eigenvalues --    2.85535   2.85739   2.86132   2.86444   2.87224
 Alpha virt. eigenvalues --    2.87429   2.87929   2.88557   2.88817   2.89000
 Alpha virt. eigenvalues --    2.89654   2.90207   2.90965   2.91087   2.91550
 Alpha virt. eigenvalues --    2.91860   2.92376   2.92831   2.93316   2.93537
 Alpha virt. eigenvalues --    2.93957   2.94772   2.94890   2.95108   2.95267
 Alpha virt. eigenvalues --    2.95460   2.95930   2.96024   2.96548   2.96754
 Alpha virt. eigenvalues --    2.97162   2.97318   2.97707   2.97815   2.98035
 Alpha virt. eigenvalues --    2.98267   2.98346   2.98775   2.99309   2.99446
 Alpha virt. eigenvalues --    2.99512   2.99798   3.00114   3.00187   3.00678
 Alpha virt. eigenvalues --    3.00891   3.00952   3.01085   3.01702   3.01845
 Alpha virt. eigenvalues --    3.02254   3.02387   3.02644   3.03339   3.03766
 Alpha virt. eigenvalues --    3.04238   3.04263   3.04683   3.04874   3.05322
 Alpha virt. eigenvalues --    3.05633   3.06550   3.07215   3.07772   3.07984
 Alpha virt. eigenvalues --    3.08814   3.09489   3.10429   3.10922   3.11130
 Alpha virt. eigenvalues --    3.11277   3.12803   3.13854   3.15097   3.15452
 Alpha virt. eigenvalues --    3.15724   3.16064   3.16418   3.16718   3.17105
 Alpha virt. eigenvalues --    3.17609   3.18014   3.18427   3.18434   3.18979
 Alpha virt. eigenvalues --    3.19107   3.19534   3.19996   3.20191   3.20467
 Alpha virt. eigenvalues --    3.20780   3.21890   3.22247   3.23254   3.23604
 Alpha virt. eigenvalues --    3.23823   3.24463   3.24901   3.25631   3.25877
 Alpha virt. eigenvalues --    3.26229   3.26682   3.27223   3.27447   3.28893
 Alpha virt. eigenvalues --    3.29346   3.29673   3.30425   3.31650   3.31713
 Alpha virt. eigenvalues --    3.33074   3.33626   3.35286   3.35854   3.36671
 Alpha virt. eigenvalues --    3.37483   3.37824   3.38071   3.39245   3.40869
 Alpha virt. eigenvalues --    3.42304   3.43438   3.44368   3.46173   3.47235
 Alpha virt. eigenvalues --    3.48002   3.48307   3.48867   3.49251   3.50361
 Alpha virt. eigenvalues --    3.50739   3.51590   3.51766   3.51888   3.52449
 Alpha virt. eigenvalues --    3.53076   3.53641   3.54313   3.54492   3.55407
 Alpha virt. eigenvalues --    3.55451   3.56444   3.57307   3.58261   3.58639
 Alpha virt. eigenvalues --    3.62605   3.67447   3.83751   3.84751   3.87707
 Alpha virt. eigenvalues --    3.99852   4.07463   4.08594   4.12055   4.13666
 Alpha virt. eigenvalues --    4.13731   4.18023   4.18452   4.19866   4.20369
 Alpha virt. eigenvalues --    4.21831   4.24009   4.25645   4.26347   4.27484
 Alpha virt. eigenvalues --    4.27933   4.29447   4.30571   4.30947   4.31423
 Alpha virt. eigenvalues --    4.31763   4.32935   4.33703   4.33884   4.34652
 Alpha virt. eigenvalues --    4.35304   4.35984   4.36643   4.37412   4.38179
 Alpha virt. eigenvalues --    4.38674   4.39770   4.41957   4.42573   4.43422
 Alpha virt. eigenvalues --    4.44374   4.45125   4.46091   4.46465   4.47435
 Alpha virt. eigenvalues --    4.48053   4.48414   4.49227   4.49732   4.51050
 Alpha virt. eigenvalues --    4.51286   4.52554   4.53441   4.54000   4.55706
 Alpha virt. eigenvalues --    4.56859   4.58333   4.58726   4.58991   4.61087
 Alpha virt. eigenvalues --    4.63639   4.67688   4.78674   4.79624   4.79838
 Alpha virt. eigenvalues --    4.80384   4.80880   4.81043   4.81525   4.81784
 Alpha virt. eigenvalues --    4.82185   4.87524   5.00053   5.98388   6.04997
 Alpha virt. eigenvalues --    6.06993   6.08767   6.25176   6.31663   6.64320
 Alpha virt. eigenvalues --    6.65459   6.66541   6.67050   6.67893   6.68579
 Alpha virt. eigenvalues --    6.70868   6.71715   6.74408   6.79298   6.80611
 Alpha virt. eigenvalues --    6.81309   6.82773   6.84780   6.86202   6.86466
 Alpha virt. eigenvalues --    6.87201   6.88197   6.89536   6.91334   6.94666
 Alpha virt. eigenvalues --    6.94970   6.96604   6.97053   6.98910   7.00019
 Alpha virt. eigenvalues --    7.00863   7.03202   7.03292   7.03415   7.05525
 Alpha virt. eigenvalues --    7.06845   7.09874   7.10900   7.11277   7.13217
 Alpha virt. eigenvalues --    7.13968   7.15466   7.15739   7.16157   7.16772
 Alpha virt. eigenvalues --    7.18808   7.19989   7.21443   7.25568   7.27905
 Alpha virt. eigenvalues --    7.28106   7.28759   7.29657   7.30284   7.31153
 Alpha virt. eigenvalues --    7.31867   7.33742   7.36037   7.38205   7.80453
 Alpha virt. eigenvalues --    7.82592   7.84861   7.88379   7.89582   7.92825
 Alpha virt. eigenvalues --    8.52804   8.53310   8.54027   8.54543   8.56076
 Alpha virt. eigenvalues --    8.57732   8.58221   8.64095   8.74176   9.28957
 Alpha virt. eigenvalues --   10.15134  10.18707  10.20297  10.23013  10.41815
 Alpha virt. eigenvalues --   14.29491  14.32569  16.15289  17.04495  17.04858
 Alpha virt. eigenvalues --   17.05430  17.05735  17.06461  17.06881  17.07035
 Alpha virt. eigenvalues --   17.07791  17.08356  17.08655  17.09427  17.09744
 Alpha virt. eigenvalues --   17.10379  17.11050  17.11642  17.12395  17.12558
 Alpha virt. eigenvalues --   17.13576  17.15336  17.16647  17.17431  17.17662
 Alpha virt. eigenvalues --   17.18100  17.18587  17.19181  17.19954  17.21106
 Alpha virt. eigenvalues --   17.22752  17.23817  17.25667  17.27001  17.28459
 Alpha virt. eigenvalues --   17.29333  17.29746  17.30484  17.30900  17.31486
 Alpha virt. eigenvalues --   17.31904  17.32833  17.33479  17.33863  17.34892
 Alpha virt. eigenvalues --   17.35181  17.35611  17.35873  17.36179  17.36794
 Alpha virt. eigenvalues --   17.37317  17.38051  17.38479  17.39383  17.40819
 Alpha virt. eigenvalues --   17.41421  17.43268  17.44164  17.44692  17.46006
 Alpha virt. eigenvalues --   17.48730  17.51590  17.54224  21.21752  21.43691
 Alpha virt. eigenvalues --   21.49999  25.91539  25.93105  25.95716  26.43923
 Alpha virt. eigenvalues --   31.89323  31.91561  31.92629  31.95237  31.99383
 Alpha virt. eigenvalues --   43.09501  43.12330  43.12744  43.15091  43.27715
 Alpha virt. eigenvalues --   61.98502  62.01361  63.48466  82.46225  86.30301
 Alpha virt. eigenvalues --   86.48146  86.53054  89.29007  89.29843  89.31342
 Alpha virt. eigenvalues --   89.31984  89.32659  89.32967  89.33225  89.34004
 Alpha virt. eigenvalues --   89.34895  89.35406  89.35725  89.36029  89.36935
 Alpha virt. eigenvalues --   89.38046  89.38297  89.38921  89.39209  89.40100
 Alpha virt. eigenvalues --   89.41323  89.42132  89.42662  89.42947  89.44296
 Alpha virt. eigenvalues --   89.44924  89.45651  89.45817  89.46912  89.48246
 Alpha virt. eigenvalues --   89.48898  89.52254  89.53471  89.54082  89.55688
 Alpha virt. eigenvalues --   89.55912  89.56430  89.56716  89.57898  89.57966
 Alpha virt. eigenvalues --   89.58762  89.59892  89.60658  89.61680  89.62702
 Alpha virt. eigenvalues --   89.62774  89.63315  89.63644  89.64604  89.64859
 Alpha virt. eigenvalues --   89.65705  89.65913  89.66650  89.67787  89.68614
 Alpha virt. eigenvalues --   89.70214  89.70817  89.71323  89.72213  89.74465
 Alpha virt. eigenvalues --   89.77333  89.79605 122.16787 122.17563 122.19393
 Alpha virt. eigenvalues --  239.61961 257.55132 332.32019 332.35089 428.87659
 Alpha virt. eigenvalues --  429.01595 429.05528 590.48232 590.48852 590.50278
 Alpha virt. eigenvalues --  773.20846 839.980552068.792442530.324545495.57885
 Alpha virt. eigenvalues -- ******************************
          Condensed to atoms (all electrons):
 Mulliken charges:
               1
     1  Pt   0.347922
     2  C    0.215115
     3  C   -0.152856
     4  C   -0.001137
     5  C    0.036158
     6  H    0.021194
     7  C    0.066543
     8  H    0.014466
     9  C   -0.639402
    10  H    0.112556
    11  H    0.101017
    12  H    0.122467
    13  P    1.282954
    14  P    0.920738
    15  C   -1.419498
    16  C    0.573642
    17  C    0.575749
    18  C    0.071417
    19  H    0.087272
    20  C   -0.238081
    21  H    0.050167
    22  C   -0.697658
    23  H    0.138199
    24  H    0.129035
    25  H    0.150041
    26  C   -1.023275
    27  C    0.770037
    28  C    0.127709
    29  C    0.050076
    30  H    0.034956
    31  C   -0.196945
    32  H    0.086217
    33  C   -0.499634
    34  H    0.121065
    35  H    0.129072
    36  H    0.143893
    37  C   -1.183056
    38  C    0.576255
    39  C    0.276519
    40  C   -0.066546
    41  H    0.043430
    42  C   -0.179642
    43  H    0.076494
    44  C   -0.455933
    45  H    0.124106
    46  H    0.134823
    47  H    0.145897
    48  C   -1.172461
    49  C    0.417523
    50  C    0.631355
    51  C   -0.170676
    52  H    0.082808
    53  C   -0.044943
    54  H    0.060597
    55  C   -0.487628
    56  H    0.111594
    57  H    0.117304
    58  H    0.125333
    59  C   -0.831544
    60  C    0.165034
    61  C    0.684121
    62  C   -0.146366
    63  H    0.048338
    64  C    0.027256
    65  H    0.022725
    66  C   -0.608216
    67  H    0.128937
    68  H    0.133940
    69  H    0.143497
    70  C   -1.053524
    71  C    0.556039
    72  C    0.294958
    73  C    0.068786
    74  H    0.083524
    75  C   -0.253663
    76  H    0.067455
    77  C   -0.633665
    78  H    0.140372
    79  H    0.125251
    80  H    0.145500
    81  Sn   0.389977
    82  C   -0.166842
    83  C    0.151284
    84  C    0.204975
    85  C   -0.155003
    86  H    0.105030
    87  C   -0.125477
    88  H    0.073091
    89  C   -0.687765
    90  H    0.143284
    91  H    0.139113
    92  H    0.148636
    93  C   -0.046012
    94  C    0.005651
    95  C    0.298193
    96  C   -0.178538
    97  H    0.085963
    98  C   -0.093117
    99  H    0.054488
   100  C   -0.609381
   101  H    0.124606
   102  H    0.130431
   103  H    0.140234
   104  C   -0.038502
   105  C    0.038850
   106  C    0.021896
   107  C   -0.176502
   108  H    0.094338
   109  C   -0.077300
   110  H    0.098391
   111  C   -0.607511
   112  H    0.143783
   113  H    0.139468
   114  H    0.147168
 Sum of Mulliken charges =   0.00000
 Mulliken charges with hydrogens summed into heavy atoms:
               1
     1  Pt   0.347922
     2  C    0.215115
     3  C   -0.131662
     4  C    0.013328
     5  C    0.148714
     7  C    0.167560
     9  C   -0.516935
    13  P    1.282954
    14  P    0.920738
    15  C   -1.419498
    16  C    0.660914
    17  C    0.625917
    18  C    0.209616
    20  C   -0.109046
    22  C   -0.547616
    26  C   -1.023275
    27  C    0.804993
    28  C    0.213927
    29  C    0.171141
    31  C   -0.067872
    33  C   -0.355741
    37  C   -1.183056
    38  C    0.619685
    39  C    0.353013
    40  C    0.057559
    42  C   -0.044818
    44  C   -0.310036
    48  C   -1.172461
    49  C    0.500331
    50  C    0.691952
    51  C   -0.059082
    53  C    0.072361
    55  C   -0.362296
    59  C   -0.831544
    60  C    0.213372
    61  C    0.706846
    62  C   -0.017430
    64  C    0.161196
    66  C   -0.464719
    70  C   -1.053524
    71  C    0.639563
    72  C    0.362413
    73  C    0.209157
    75  C   -0.128412
    77  C   -0.488164
    81  Sn   0.389977
    82  C   -0.166842
    83  C    0.256314
    84  C    0.278066
    85  C   -0.011720
    87  C    0.013637
    89  C   -0.539129
    93  C   -0.046012
    94  C    0.091614
    95  C    0.352681
    96  C   -0.053933
    98  C    0.037315
   100  C   -0.469146
   104  C   -0.038502
   105  C    0.133187
   106  C    0.120287
   107  C   -0.032719
   109  C    0.062168
   111  C   -0.460344
 Electronic spatial extent (au):  <R**2>=          42325.4473
 Charge=              0.0000 electrons
 Dipole moment (field-independent basis, Debye):
    X=              9.4471    Y=             -5.5359    Z=              0.0429  Tot=             10.9497
 Quadrupole moment (field-independent basis, Debye-Ang):
   XX=           -417.8942   YY=           -409.9276   ZZ=           -384.8699
   XY=              7.8202   XZ=              4.6283   YZ=             -1.7535
 Traceless Quadrupole moment (field-independent basis, Debye-Ang):
   XX=            -13.6636   YY=             -5.6970   ZZ=             19.3607
   XY=              7.8202   XZ=              4.6283   YZ=             -1.7535
 Octapole moment (field-independent basis, Debye-Ang**2):
  XXX=             53.6050  YYY=            -20.3613  ZZZ=             20.6248  XYY=             59.6879
  XXY=            -62.0105  XXZ=            -46.9239  XZZ=             70.6266  YZZ=             11.8403
  YYZ=             -4.4148  XYZ=              6.9479
 Hexadecapole moment (field-independent basis, Debye-Ang**3):
 XXXX=         -26219.2186 YYYY=         -19068.4333 ZZZZ=         -11444.9088 XXXY=            152.8676
 XXXZ=            301.0198 YYYX=            -28.8991 YYYZ=           -139.1284 ZZZX=             74.8126
 ZZZY=             42.3392 XXYY=          -7105.4485 XXZZ=          -6073.0266 YYZZ=          -5041.9738
 XXYZ=             43.1072 YYXZ=           -103.2322 ZZXY=             26.6060
 N-N= 1.652592765477D+04 E-N=-9.470539948913D+04  KE= 2.567860572142D+04
 Leave Link  601 at Thu Nov 14 03:45:03 2019, MaxMem=   939524096 cpu:        18.8
 (Enter /scr/programas/g09/l9999.exe)
 1\1\GINC-NQTCM\SP\RPBEPBE\Gen\C60H50P2Pt1Sn1\NQTCM\14-Nov-2019\0\\#PBE
 PBE/gen scf=(maxcycle=500,conver=3) NMR=GIAO Scrf=(solvent=Dichloromet
 hane)\\estrutura 83\\0,1\Pt,0,-0.241031,0.360606,0.092089\C,0,0.08509,
 2.409471,0.22584\C,0,0.090281,3.293021,-0.872695\C,0,0.253534,2.990819
 ,1.500359\C,0,0.222023,4.677954,-0.710556\H,0,-0.006103,2.904129,-1.88
 8575\C,0,0.390459,4.374148,1.671824\H,0,0.273265,2.353866,2.389192\C,0
 ,0.370052,5.229737,0.565609\H,0,0.215543,5.327131,-1.591659\H,0,0.5134
 76,4.783773,2.679214\H,0,0.475502,6.310352,0.696188\P,0,-2.686874,0.95
 721,-0.105693\P,0,-0.449673,-2.07719,0.188755\C,0,-3.0917,1.440841,-1.
 847497\C,0,-4.40148,1.808718,-2.211627\C,0,-2.103914,1.391392,-2.84325
 4\C,0,-4.704735,2.141518,-3.533363\H,0,-5.194918,1.827731,-1.461533\C,
 0,-2.409755,1.719697,-4.169108\H,0,-1.090384,1.082555,-2.580603\C,0,-3
 .708172,2.100262,-4.515701\H,0,-5.725352,2.428583,-3.798451\H,0,-1.628
 141,1.674232,-4.931492\H,0,-3.947638,2.357475,-5.550532\C,0,-3.102758,
 2.428991,0.938054\C,0,-2.903946,2.327631,2.32783\C,0,-3.577131,3.64254
 7,0.416881\C,0,-3.216569,3.391065,3.176829\H,0,-2.490401,1.413088,2.75
 8937\C,0,-3.871115,4.715376,1.266526\H,0,-3.713554,3.766544,-0.657766\
 C,0,-3.704162,4.590558,2.647649\H,0,-3.064072,3.286024,4.253848\H,0,-4
 .234452,5.653801,0.839988\H,0,-3.941267,5.427607,3.309044\C,0,-4.11712
 7,-0.190533,0.238922\C,0,-4.359906,-1.237782,-0.66933\C,0,-4.963814,-0
 .063035,1.353339\C,0,-5.415917,-2.129426,-0.468037\H,0,-3.729365,-1.35
 6853,-1.551772\C,0,-6.018635,-0.960043,1.555055\H,0,-4.819754,0.745771
 ,2.069651\C,0,-6.249205,-1.99638,0.647179\H,0,-5.585788,-2.932205,-1.1
 89664\H,0,-6.666712,-0.837995,2.426737\H,0,-7.07609,-2.693446,0.803858
 \C,0,1.06309,-3.157403,0.287473\C,0,1.428209,-4.052333,-0.729693\C,0,1
 .841919,-3.109047,1.457077\C,0,2.53971,-4.888727,-0.57425\H,0,0.8451,-
 4.110911,-1.649338\C,0,2.951329,-3.943037,1.609937\H,0,1.576566,-2.426
 329,2.266281\C,0,3.301744,-4.840097,0.595138\H,0,2.807136,-5.58177,-1.
 375918\H,0,3.541392,-3.892116,2.528524\H,0,4.167411,-5.49646,0.715917\
 C,0,-1.329841,-2.811158,-1.26689\C,0,-2.191404,-3.918191,-1.193549\C,0
 ,-1.08375,-2.229043,-2.522944\C,0,-2.789942,-4.429346,-2.349565\H,0,-2
 .414424,-4.38452,-0.233562\C,0,-1.67857,-2.743183,-3.679196\H,0,-0.422
 208,-1.363162,-2.594709\C,0,-2.535691,-3.845245,-3.594783\H,0,-3.46172
 5,-5.288367,-2.273507\H,0,-1.47578,-2.276415,-4.646317\H,0,-3.006327,-
 4.245925,-4.496126\C,0,-1.330532,-2.685298,1.704826\C,0,-1.349897,-4.0
 49662,2.055799\C,0,-1.938389,-1.763572,2.56959\C,0,-1.991614,-4.475814
 ,3.22073\H,0,-0.84397,-4.786643,1.429031\C,0,-2.57279,-2.187828,3.7426
 11\H,0,-1.898466,-0.702106,2.323805\C,0,-2.607007,-3.545775,4.067038\H
 ,0,-2.001227,-5.538827,3.47447\H,0,-3.037581,-1.452193,4.403723\H,0,-3
 .102168,-3.880418,4.98219\Sn,0,2.421936,0.416462,-0.054048\C,0,3.36514
 5,0.176101,1.923473\C,0,4.763205,0.184487,2.087336\C,0,2.573711,0.0598
 01,3.080668\C,0,5.348242,0.060823,3.354696\H,0,5.41953,0.297702,1.2190
 21\C,0,3.150067,-0.057909,4.352272\H,0,1.482267,0.060846,2.991786\C,0,
 4.542107,-0.06239,4.491547\H,0,6.437708,0.065088,3.454172\H,0,2.510897
 ,-0.145647,5.235855\H,0,4.996726,-0.156223,5.48172\C,0,3.338469,-1.000
 52,-1.478067\C,0,4.518566,-1.7056,-1.183775\C,0,2.811818,-1.125176,-2.
 777112\C,0,5.152707,-2.498672,-2.148789\H,0,4.958785,-1.647866,-0.1844
 09\C,0,3.437537,-1.918671,-3.747342\H,0,1.894501,-0.59367,-3.051496\C,
 0,4.614476,-2.607211,-3.435229\H,0,6.070526,-3.036374,-1.892717\H,0,3.
 006285,-1.99661,-4.749825\H,0,5.108601,-3.225321,-4.189936\C,0,3.45276
 1,2.234457,-0.772375\C,0,3.630588,2.473557,-2.147365\C,0,4.006859,3.16
 3471,0.126608\C,0,4.325057,3.598601,-2.609017\H,0,3.232237,1.768742,-2
 .883959\C,0,4.704507,4.29076,-0.326312\H,0,3.897495,3.013085,1.204597\
 C,0,4.865225,4.512729,-1.697618\H,0,4.448755,3.759349,-3.684225\H,0,5.
 125306,4.996845,0.396029\H,0,5.410581,5.390828,-2.054255\\Version=EM64
 L-G09RevD.01\State=1-A\HF=-26088.4777612\RMSD=6.759e-04\Dipole=-3.7167
 731,-2.1779908,-0.0168707\Quadrupole=-10.1585724,-4.2355982,14.3941706
 ,-5.814138,3.4410061,1.3037117\PG=C01 [X(C60H50P2Pt1Sn1)]\\@


 Discoveries are often made by not following instructions,
 by going off the main road, by trying the untried.
 -- Frank Tyger
 Job cpu time:       5 days  5 hours 56 minutes  7.8 seconds.
 File lengths (MBytes):  RWF=   3908 Int=      0 D2E=      0 Chk=    276 Scr=      1
 Normal termination of Gaussian 09 at Thu Nov 14 03:45:04 2019.
