 Entering Gaussian System, Link 0=g09
 Input=estrutura84.com
 Output=estrutura84.log
 Initial command:
 /scr/programas/g09/l1.exe "/scr/nqtcm/Gau-10655.inp" -scrdir="/scr/nqtcm/"
 Entering Link 1 = /scr/programas/g09/l1.exe PID=     10658.
  
 Copyright (c) 1988,1990,1992,1993,1995,1998,2003,2009,2013,
            Gaussian, Inc.  All Rights Reserved.
  
 This is part of the Gaussian(R) 09 program.  It is based on
 the Gaussian(R) 03 system (copyright 2003, Gaussian, Inc.),
 the Gaussian(R) 98 system (copyright 1998, Gaussian, Inc.),
 the Gaussian(R) 94 system (copyright 1995, Gaussian, Inc.),
 the Gaussian 92(TM) system (copyright 1992, Gaussian, Inc.),
 the Gaussian 90(TM) system (copyright 1990, Gaussian, Inc.),
 the Gaussian 88(TM) system (copyright 1988, Gaussian, Inc.),
 the Gaussian 86(TM) system (copyright 1986, Carnegie Mellon
 University), and the Gaussian 82(TM) system (copyright 1983,
 Carnegie Mellon University). Gaussian is a federally registered
 trademark of Gaussian, Inc.
  
 This software contains proprietary and confidential information,
 including trade secrets, belonging to Gaussian, Inc.
  
 This software is provided under written license and may be
 used, copied, transmitted, or stored only in accord with that
 written license.
  
 The following legend is applicable only to US Government
 contracts under FAR:
  
                    RESTRICTED RIGHTS LEGEND
  
 Use, reproduction and disclosure by the US Government is
 subject to restrictions as set forth in subparagraphs (a)
 and (c) of the Commercial Computer Software - Restricted
 Rights clause in FAR 52.227-19.
  
 Gaussian, Inc.
 340 Quinnipiac St., Bldg. 40, Wallingford CT 06492
  
  
 ---------------------------------------------------------------
 Warning -- This program may not be used in any manner that
 competes with the business of Gaussian, Inc. or will provide
 assistance to any competitor of Gaussian, Inc.  The licensee
 of this program is prohibited from giving any competitor of
 Gaussian, Inc. access to this program.  By using this program,
 the user acknowledges that Gaussian, Inc. is engaged in the
 business of creating and licensing software in the field of
 computational chemistry and represents and warrants to the
 licensee that it is not a competitor of Gaussian, Inc. and that
 it will not use this program in any manner prohibited above.
 ---------------------------------------------------------------
  

 Cite this work as:
 Gaussian 09, Revision D.01,
 M. J. Frisch, G. W. Trucks, H. B. Schlegel, G. E. Scuseria, 
 M. A. Robb, J. R. Cheeseman, G. Scalmani, V. Barone, B. Mennucci, 
 G. A. Petersson, H. Nakatsuji, M. Caricato, X. Li, H. P. Hratchian, 
 A. F. Izmaylov, J. Bloino, G. Zheng, J. L. Sonnenberg, M. Hada, 
 M. Ehara, K. Toyota, R. Fukuda, J. Hasegawa, M. Ishida, T. Nakajima, 
 Y. Honda, O. Kitao, H. Nakai, T. Vreven, J. A. Montgomery, Jr., 
 J. E. Peralta, F. Ogliaro, M. Bearpark, J. J. Heyd, E. Brothers, 
 K. N. Kudin, V. N. Staroverov, T. Keith, R. Kobayashi, J. Normand, 
 K. Raghavachari, A. Rendell, J. C. Burant, S. S. Iyengar, J. Tomasi, 
 M. Cossi, N. Rega, J. M. Millam, M. Klene, J. E. Knox, J. B. Cross, 
 V. Bakken, C. Adamo, J. Jaramillo, R. Gomperts, R. E. Stratmann, 
 O. Yazyev, A. J. Austin, R. Cammi, C. Pomelli, J. W. Ochterski, 
 R. L. Martin, K. Morokuma, V. G. Zakrzewski, G. A. Voth, 
 P. Salvador, J. J. Dannenberg, S. Dapprich, A. D. Daniels, 
 O. Farkas, J. B. Foresman, J. V. Ortiz, J. Cioslowski, 
 and D. J. Fox, Gaussian, Inc., Wallingford CT, 2013.
 
 ******************************************
 Gaussian 09:  EM64L-G09RevD.01 24-Apr-2013
                19-Nov-2019 
 ******************************************
 %mem=7Gb
 %nproc=4
 Will use up to    4 processors via shared memory.
 ----------------------------------------------------------------------
 #PBEPBE/gen scf=(maxcycle=500,conver=3) NMR=GIAO Scrf=(solvent=Dichlor
 omethane)
 ----------------------------------------------------------------------
 1/38=1/1;
 2/12=2,17=6,18=5,40=1/2;
 3/5=7,11=2,16=1,25=1,30=1,70=2201,72=9,74=1009/1,2,8,3;
 4//1;
 5/5=2,6=3,7=500,38=5,53=9/2;
 8/6=1,10=90,11=11/1;
 10/13=100,45=16/2;
 6/7=2,8=2,9=2,10=2,28=1/1;
 99/9=1/99;
 Leave Link    1 at Tue Nov 19 11:18:34 2019, MaxMem=   939524096 cpu:         0.3
 (Enter /scr/programas/g09/l101.exe)
 ------------
 estrutura 84
 ------------
 Symbolic Z-matrix:
 Charge =  0 Multiplicity = 1
 Pt                    0.08846  -0.26483   0.14222 
 C                    -0.51952  -2.20513   0.60723 
 C                    -0.59682  -3.27588  -0.30436 
 C                    -0.83893  -2.49004   1.95148 
 C                    -0.94642  -4.56795   0.10506 
 H                    -0.38648  -3.11036  -1.36343 
 C                    -1.19683  -3.77871   2.36773 
 H                    -0.79589  -1.69276   2.70023 
 C                    -1.24759  -4.82933   1.44554 
 H                    -0.99003  -5.37449  -0.63317 
 H                    -1.43321  -3.96106   3.42071 
 H                    -1.52504  -5.83696   1.76649 
 P                     2.39225  -1.18215   0.16841 
 P                     0.55808   2.11422  -0.14023 
 C                     2.74142  -1.96847  -1.46989 
 C                     3.98038  -2.58577  -1.72369 
 C                     1.79277  -1.89876  -2.50219 
 C                     4.24927  -3.14817  -2.97413 
 H                     4.74715  -2.62257  -0.94635 
 C                     2.06661  -2.45728  -3.75728 
 H                     0.84227  -1.39247  -2.32446 
 C                     3.2892   -3.08752  -3.99201 
 H                     5.21316  -3.62899  -3.15498 
 H                     1.31759  -2.39305  -4.55097 
 H                     3.50283  -3.52517  -4.97134 
 C                     2.59741  -2.50838   1.44023 
 C                     2.42889  -2.15442   2.79259 
 C                     2.87627  -3.8472    1.12606 
 C                     2.57877  -3.10439   3.8046 
 H                     2.17085  -1.12839   3.06471 
 C                     3.00886  -4.80221   2.14071 
 H                     2.98305  -4.16064   0.08696 
 C                     2.87145  -4.43328   3.48151 
 H                     2.45346  -2.8063    4.84897 
 H                     3.22169  -5.84084   1.87597 
 H                     2.98134  -5.18055   4.27146 
 C                     3.94317  -0.17332   0.36681 
 C                     4.28155   0.71137  -0.67343 
 C                     4.79806  -0.25911   1.48031 
 C                     5.43693   1.48961  -0.60169 
 H                     3.64394   0.78436  -1.55599 
 C                     5.95364   0.52449   1.54987 
 H                     4.57777  -0.94711   2.29613 
 C                     6.27959   1.40245   0.51284 
 H                     5.681     2.16885  -1.42377 
 H                     6.60854   0.43949   2.42228 
 H                     7.18492   2.01038   0.56877 
 C                    -0.85863   3.3163   -0.10006 
 C                    -1.16521   4.17725  -1.16407 
 C                    -1.61799   3.39577   1.07959 
 C                    -2.20701   5.10383  -1.04635 
 H                    -0.59528   4.13127  -2.09242 
 C                    -2.65392   4.32434   1.19709 
 H                    -1.39912   2.73161   1.9191 
 C                    -2.95073   5.18318   0.13301 
 H                    -2.43446   5.76701  -1.88523 
 H                    -3.23524   4.37081   2.12088 
 H                    -3.76279   5.90913   0.22363 
 C                     1.39602   2.52133  -1.73827 
 C                     2.49595   3.38582  -1.86022 
 C                     0.87779   1.91432  -2.89721 
 C                     3.0632    3.63797  -3.11433 
 H                     2.93043   3.85753  -0.97923 
 C                     1.44312   2.17283  -4.14915 
 H                     0.01431   1.24947  -2.82314 
 C                     2.53976   3.03457  -4.2606 
 H                     3.92141   4.31057  -3.19068 
 H                     1.02556   1.69674  -5.03934 
 H                     2.9849    3.2331   -5.2388 
 C                     1.57183   2.85406   1.22457 
 C                     1.8141    4.2401    1.29181 
 C                     2.02098   2.04316   2.27639 
 C                     2.52061   4.78658   2.36498 
 H                     1.4322    4.90449   0.51403 
 C                     2.71812   2.5913    3.35888 
 H                     1.80403   0.97506   2.25306 
 C                     2.97654   3.96263   3.40141 
 H                     2.70498   5.86304   2.39876 
 H                     3.05519   1.94201   4.17074 
 H                     3.52154   4.39352   4.24511 
 Sn                   -2.51026  -0.12159  -0.33706 
 C                    -3.91375   0.73816   1.11664 
 C                    -5.11718   1.31996   0.6832 
 C                    -3.66017   0.67676   2.49725 
 C                    -6.0409    1.82932   1.60332 
 H                    -5.33766   1.39181  -0.38636 
 C                    -4.58392   1.1805    3.42191 
 H                    -2.72971   0.23548   2.86986 
 C                    -5.77611   1.75942   2.97592 
 H                    -6.97046   2.28281   1.24719 
 H                    -4.37036   1.12184   4.49351 
 H                    -6.49768   2.15556   3.69513 
 C                    -3.65234  -1.8499   -1.06549 
 C                    -3.83312  -2.10378  -2.43539 
 C                    -4.25023  -2.72512  -0.14224 
 C                    -4.58215  -3.20469  -2.8715 
 H                    -3.40109  -1.42416  -3.17496 
 C                    -5.00116  -3.82541  -0.57307 
 H                    -4.13334  -2.55907   0.93309 
 C                    -5.16753  -4.0695   -1.94095 
 H                    -4.71321  -3.3841   -3.94283 
 H                    -5.45782  -4.49416   0.16241 
 H                    -5.75418  -4.92823  -2.27962 
 Cl                   -2.92048   1.27521  -2.3483 
 
 NAtoms=    104 NQM=      104 NQMF=       0 NMMI=      0 NMMIF=      0
                NMic=       0 NMicF=      0.
                    Isotopes and Nuclear Properties:
 (Nuclear quadrupole moments (NQMom) in fm**2, nuclear magnetic moments (NMagM)
  in nuclear magnetons)

  Atom         1           2           3           4           5           6           7           8           9          10
 IAtWgt=         195          12          12          12          12           1          12           1          12           1
 AtmWgt= 194.9648000  12.0000000  12.0000000  12.0000000  12.0000000   1.0078250  12.0000000   1.0078250  12.0000000   1.0078250
 NucSpn=           1           0           0           0           0           1           0           1           0           1
 AtZEff=   0.0000000   0.0000000   0.0000000   0.0000000   0.0000000   0.0000000   0.0000000   0.0000000   0.0000000   0.0000000
 NQMom=    0.0000000   0.0000000   0.0000000   0.0000000   0.0000000   0.0000000   0.0000000   0.0000000   0.0000000   0.0000000
 NMagM=    0.6095000   0.0000000   0.0000000   0.0000000   0.0000000   2.7928460   0.0000000   2.7928460   0.0000000   2.7928460
 AtZNuc=  78.0000000   6.0000000   6.0000000   6.0000000   6.0000000   1.0000000   6.0000000   1.0000000   6.0000000   1.0000000

  Atom        11          12          13          14          15          16          17          18          19          20
 IAtWgt=           1           1          31          31          12          12          12          12           1          12
 AtmWgt=   1.0078250   1.0078250  30.9737634  30.9737634  12.0000000  12.0000000  12.0000000  12.0000000   1.0078250  12.0000000
 NucSpn=           1           1           1           1           0           0           0           0           1           0
 AtZEff=   0.0000000   0.0000000   0.0000000   0.0000000   0.0000000   0.0000000   0.0000000   0.0000000   0.0000000   0.0000000
 NQMom=    0.0000000   0.0000000   0.0000000   0.0000000   0.0000000   0.0000000   0.0000000   0.0000000   0.0000000   0.0000000
 NMagM=    2.7928460   2.7928460   1.1316000   1.1316000   0.0000000   0.0000000   0.0000000   0.0000000   2.7928460   0.0000000
 AtZNuc=   1.0000000   1.0000000  15.0000000  15.0000000   6.0000000   6.0000000   6.0000000   6.0000000   1.0000000   6.0000000

  Atom        21          22          23          24          25          26          27          28          29          30
 IAtWgt=           1          12           1           1           1          12          12          12          12           1
 AtmWgt=   1.0078250  12.0000000   1.0078250   1.0078250   1.0078250  12.0000000  12.0000000  12.0000000  12.0000000   1.0078250
 NucSpn=           1           0           1           1           1           0           0           0           0           1
 AtZEff=   0.0000000   0.0000000   0.0000000   0.0000000   0.0000000   0.0000000   0.0000000   0.0000000   0.0000000   0.0000000
 NQMom=    0.0000000   0.0000000   0.0000000   0.0000000   0.0000000   0.0000000   0.0000000   0.0000000   0.0000000   0.0000000
 NMagM=    2.7928460   0.0000000   2.7928460   2.7928460   2.7928460   0.0000000   0.0000000   0.0000000   0.0000000   2.7928460
 AtZNuc=   1.0000000   6.0000000   1.0000000   1.0000000   1.0000000   6.0000000   6.0000000   6.0000000   6.0000000   1.0000000

  Atom        31          32          33          34          35          36          37          38          39          40
 IAtWgt=          12           1          12           1           1           1          12          12          12          12
 AtmWgt=  12.0000000   1.0078250  12.0000000   1.0078250   1.0078250   1.0078250  12.0000000  12.0000000  12.0000000  12.0000000
 NucSpn=           0           1           0           1           1           1           0           0           0           0
 AtZEff=   0.0000000   0.0000000   0.0000000   0.0000000   0.0000000   0.0000000   0.0000000   0.0000000   0.0000000   0.0000000
 NQMom=    0.0000000   0.0000000   0.0000000   0.0000000   0.0000000   0.0000000   0.0000000   0.0000000   0.0000000   0.0000000
 NMagM=    0.0000000   2.7928460   0.0000000   2.7928460   2.7928460   2.7928460   0.0000000   0.0000000   0.0000000   0.0000000
 AtZNuc=   6.0000000   1.0000000   6.0000000   1.0000000   1.0000000   1.0000000   6.0000000   6.0000000   6.0000000   6.0000000

  Atom        41          42          43          44          45          46          47          48          49          50
 IAtWgt=           1          12           1          12           1           1           1          12          12          12
 AtmWgt=   1.0078250  12.0000000   1.0078250  12.0000000   1.0078250   1.0078250   1.0078250  12.0000000  12.0000000  12.0000000
 NucSpn=           1           0           1           0           1           1           1           0           0           0
 AtZEff=   0.0000000   0.0000000   0.0000000   0.0000000   0.0000000   0.0000000   0.0000000   0.0000000   0.0000000   0.0000000
 NQMom=    0.0000000   0.0000000   0.0000000   0.0000000   0.0000000   0.0000000   0.0000000   0.0000000   0.0000000   0.0000000
 NMagM=    2.7928460   0.0000000   2.7928460   0.0000000   2.7928460   2.7928460   2.7928460   0.0000000   0.0000000   0.0000000
 AtZNuc=   1.0000000   6.0000000   1.0000000   6.0000000   1.0000000   1.0000000   1.0000000   6.0000000   6.0000000   6.0000000

  Atom        51          52          53          54          55          56          57          58          59          60
 IAtWgt=          12           1          12           1          12           1           1           1          12          12
 AtmWgt=  12.0000000   1.0078250  12.0000000   1.0078250  12.0000000   1.0078250   1.0078250   1.0078250  12.0000000  12.0000000
 NucSpn=           0           1           0           1           0           1           1           1           0           0
 AtZEff=   0.0000000   0.0000000   0.0000000   0.0000000   0.0000000   0.0000000   0.0000000   0.0000000   0.0000000   0.0000000
 NQMom=    0.0000000   0.0000000   0.0000000   0.0000000   0.0000000   0.0000000   0.0000000   0.0000000   0.0000000   0.0000000
 NMagM=    0.0000000   2.7928460   0.0000000   2.7928460   0.0000000   2.7928460   2.7928460   2.7928460   0.0000000   0.0000000
 AtZNuc=   6.0000000   1.0000000   6.0000000   1.0000000   6.0000000   1.0000000   1.0000000   1.0000000   6.0000000   6.0000000

  Atom        61          62          63          64          65          66          67          68          69          70
 IAtWgt=          12          12           1          12           1          12           1           1           1          12
 AtmWgt=  12.0000000  12.0000000   1.0078250  12.0000000   1.0078250  12.0000000   1.0078250   1.0078250   1.0078250  12.0000000
 NucSpn=           0           0           1           0           1           0           1           1           1           0
 AtZEff=   0.0000000   0.0000000   0.0000000   0.0000000   0.0000000   0.0000000   0.0000000   0.0000000   0.0000000   0.0000000
 NQMom=    0.0000000   0.0000000   0.0000000   0.0000000   0.0000000   0.0000000   0.0000000   0.0000000   0.0000000   0.0000000
 NMagM=    0.0000000   0.0000000   2.7928460   0.0000000   2.7928460   0.0000000   2.7928460   2.7928460   2.7928460   0.0000000
 AtZNuc=   6.0000000   6.0000000   1.0000000   6.0000000   1.0000000   6.0000000   1.0000000   1.0000000   1.0000000   6.0000000

  Atom        71          72          73          74          75          76          77          78          79          80
 IAtWgt=          12          12          12           1          12           1          12           1           1           1
 AtmWgt=  12.0000000  12.0000000  12.0000000   1.0078250  12.0000000   1.0078250  12.0000000   1.0078250   1.0078250   1.0078250
 NucSpn=           0           0           0           1           0           1           0           1           1           1
 AtZEff=   0.0000000   0.0000000   0.0000000   0.0000000   0.0000000   0.0000000   0.0000000   0.0000000   0.0000000   0.0000000
 NQMom=    0.0000000   0.0000000   0.0000000   0.0000000   0.0000000   0.0000000   0.0000000   0.0000000   0.0000000   0.0000000
 NMagM=    0.0000000   0.0000000   0.0000000   2.7928460   0.0000000   2.7928460   0.0000000   2.7928460   2.7928460   2.7928460
 AtZNuc=   6.0000000   6.0000000   6.0000000   1.0000000   6.0000000   1.0000000   6.0000000   1.0000000   1.0000000   1.0000000

  Atom        81          82          83          84          85          86          87          88          89          90
 IAtWgt=         118          12          12          12          12           1          12           1          12           1
 AtmWgt= 117.9018000  12.0000000  12.0000000  12.0000000  12.0000000   1.0078250  12.0000000   1.0078250  12.0000000   1.0078250
 NucSpn=           0           0           0           0           0           1           0           1           0           1
 AtZEff=   0.0000000   0.0000000   0.0000000   0.0000000   0.0000000   0.0000000   0.0000000   0.0000000   0.0000000   0.0000000
 NQMom=    0.0000000   0.0000000   0.0000000   0.0000000   0.0000000   0.0000000   0.0000000   0.0000000   0.0000000   0.0000000
 NMagM=    0.0000000   0.0000000   0.0000000   0.0000000   0.0000000   2.7928460   0.0000000   2.7928460   0.0000000   2.7928460
 AtZNuc=  50.0000000   6.0000000   6.0000000   6.0000000   6.0000000   1.0000000   6.0000000   1.0000000   6.0000000   1.0000000

  Atom        91          92          93          94          95          96          97          98          99         100
 IAtWgt=           1           1          12          12          12          12           1          12           1          12
 AtmWgt=   1.0078250   1.0078250  12.0000000  12.0000000  12.0000000  12.0000000   1.0078250  12.0000000   1.0078250  12.0000000
 NucSpn=           1           1           0           0           0           0           1           0           1           0
 AtZEff=   0.0000000   0.0000000   0.0000000   0.0000000   0.0000000   0.0000000   0.0000000   0.0000000   0.0000000   0.0000000
 NQMom=    0.0000000   0.0000000   0.0000000   0.0000000   0.0000000   0.0000000   0.0000000   0.0000000   0.0000000   0.0000000
 NMagM=    2.7928460   2.7928460   0.0000000   0.0000000   0.0000000   0.0000000   2.7928460   0.0000000   2.7928460   0.0000000
 AtZNuc=   1.0000000   1.0000000   6.0000000   6.0000000   6.0000000   6.0000000   1.0000000   6.0000000   1.0000000   6.0000000

  Atom       101         102         103         104
 IAtWgt=           1           1           1          35
 AtmWgt=   1.0078250   1.0078250   1.0078250  34.9688527
 NucSpn=           1           1           1           3
 AtZEff=   0.0000000   0.0000000   0.0000000   0.0000000
 NQMom=    0.0000000   0.0000000   0.0000000  -8.1650000
 NMagM=    2.7928460   2.7928460   2.7928460   0.8218740
 AtZNuc=   1.0000000   1.0000000   1.0000000  17.0000000
 Leave Link  101 at Tue Nov 19 11:18:34 2019, MaxMem=   939524096 cpu:         0.7
 (Enter /scr/programas/g09/l202.exe)
 Stoichiometry    C54H45ClP2PtSn
 Framework group  C1[X(C54H45ClP2PtSn)]
 Deg. of freedom   306
 Full point group                 C1      NOp   1
 Largest Abelian subgroup         C1      NOp   1
 Largest concise Abelian subgroup C1      NOp   1
                         Standard orientation:                         
 ---------------------------------------------------------------------
 Center     Atomic      Atomic             Coordinates (Angstroms)
 Number     Number       Type             X           Y           Z
 ---------------------------------------------------------------------
      1         78           0       -0.088464   -0.264832   -0.142223
      2          6           0        0.519516   -2.205129   -0.607226
      3          6           0        0.596819   -3.275882    0.304357
      4          6           0        0.838925   -2.490043   -1.951480
      5          6           0        0.946419   -4.567952   -0.105061
      6          1           0        0.386480   -3.110363    1.363425
      7          6           0        1.196834   -3.778705   -2.367732
      8          1           0        0.795894   -1.692755   -2.700230
      9          6           0        1.247588   -4.829325   -1.445541
     10          1           0        0.990033   -5.374487    0.633170
     11          1           0        1.433208   -3.961063   -3.420705
     12          1           0        1.525041   -5.836956   -1.766492
     13         15           0       -2.392245   -1.182147   -0.168412
     14         15           0       -0.558081    2.114220    0.140230
     15          6           0       -2.741418   -1.968467    1.469891
     16          6           0       -3.980381   -2.585768    1.723688
     17          6           0       -1.792766   -1.898759    2.502185
     18          6           0       -4.249274   -3.148173    2.974127
     19          1           0       -4.747149   -2.622569    0.946346
     20          6           0       -2.066607   -2.457277    3.757284
     21          1           0       -0.842271   -1.392468    2.324460
     22          6           0       -3.289203   -3.087521    3.992006
     23          1           0       -5.213160   -3.628990    3.154983
     24          1           0       -1.317588   -2.393051    4.550967
     25          1           0       -3.502829   -3.525167    4.971341
     26          6           0       -2.597409   -2.508378   -1.440225
     27          6           0       -2.428893   -2.154417   -2.792592
     28          6           0       -2.876270   -3.847199   -1.126058
     29          6           0       -2.578769   -3.104392   -3.804598
     30          1           0       -2.170853   -1.128388   -3.064712
     31          6           0       -3.008862   -4.802214   -2.140711
     32          1           0       -2.983054   -4.160637   -0.086963
     33          6           0       -2.871454   -4.433276   -3.481512
     34          1           0       -2.453461   -2.806295   -4.848970
     35          1           0       -3.221692   -5.840837   -1.875970
     36          1           0       -2.981337   -5.180554   -4.271459
     37          6           0       -3.943173   -0.173320   -0.366805
     38          6           0       -4.281553    0.711371    0.673429
     39          6           0       -4.798063   -0.259109   -1.480311
     40          6           0       -5.436933    1.489609    0.601687
     41          1           0       -3.643938    0.784360    1.555991
     42          6           0       -5.953637    0.524487   -1.549866
     43          1           0       -4.577771   -0.947105   -2.296134
     44          6           0       -6.279594    1.402445   -0.512841
     45          1           0       -5.680996    2.168845    1.423765
     46          1           0       -6.608540    0.439487   -2.422281
     47          1           0       -7.184925    2.010381   -0.568772
     48          6           0        0.858629    3.316298    0.100058
     49          6           0        1.165213    4.177253    1.164073
     50          6           0        1.617990    3.395770   -1.079594
     51          6           0        2.207007    5.103834    1.046353
     52          1           0        0.595282    4.131269    2.092422
     53          6           0        2.653916    4.324338   -1.197088
     54          1           0        1.399118    2.731608   -1.919101
     55          6           0        2.950725    5.183184   -0.133005
     56          1           0        2.434457    5.767010    1.885232
     57          1           0        3.235239    4.370809   -2.120885
     58          1           0        3.762790    5.909131   -0.223631
     59          6           0       -1.396023    2.521329    1.738271
     60          6           0       -2.495950    3.385819    1.860218
     61          6           0       -0.877793    1.914320    2.897209
     62          6           0       -3.063204    3.637974    3.114333
     63          1           0       -2.930433    3.857527    0.979225
     64          6           0       -1.443116    2.172827    4.149153
     65          1           0       -0.014312    1.249469    2.823139
     66          6           0       -2.539760    3.034572    4.260602
     67          1           0       -3.921413    4.310567    3.190677
     68          1           0       -1.025556    1.696738    5.039341
     69          1           0       -2.984897    3.233100    5.238801
     70          6           0       -1.571834    2.854063   -1.224573
     71          6           0       -1.814096    4.240098   -1.291810
     72          6           0       -2.020981    2.043163   -2.276388
     73          6           0       -2.520613    4.786580   -2.364984
     74          1           0       -1.432196    4.904494   -0.514031
     75          6           0       -2.718116    2.591297   -3.358875
     76          1           0       -1.804031    0.975057   -2.253058
     77          6           0       -2.976542    3.962633   -3.401406
     78          1           0       -2.704982    5.863036   -2.398762
     79          1           0       -3.055194    1.942009   -4.170737
     80          1           0       -3.521541    4.393519   -4.245106
     81         50           0        2.510261   -0.121585    0.337059
     82          6           0        3.913746    0.738163   -1.116637
     83          6           0        5.117177    1.319958   -0.683199
     84          6           0        3.660168    0.676760   -2.497253
     85          6           0        6.040903    1.829318   -1.603319
     86          1           0        5.337656    1.391813    0.386359
     87          6           0        4.583924    1.180497   -3.421907
     88          1           0        2.729706    0.235480   -2.869858
     89          6           0        5.776108    1.759420   -2.975919
     90          1           0        6.970456    2.282808   -1.247192
     91          1           0        4.370360    1.121837   -4.493509
     92          1           0        6.497682    2.155560   -3.695132
     93          6           0        3.652336   -1.849904    1.065486
     94          6           0        3.833120   -2.103781    2.435386
     95          6           0        4.250225   -2.725124    0.142238
     96          6           0        4.582150   -3.204686    2.871504
     97          1           0        3.401086   -1.424161    3.174956
     98          6           0        5.001160   -3.825408    0.573068
     99          1           0        4.133336   -2.559066   -0.933088
    100          6           0        5.167528   -4.069502    1.940946
    101          1           0        4.713212   -3.384100    3.942829
    102          1           0        5.457816   -4.494163   -0.162410
    103          1           0        5.754178   -4.928224    2.279615
    104         17           0        2.920476    1.275207    2.348295
 ---------------------------------------------------------------------
 Rotational constants (GHZ):      0.0476050      0.0387497      0.0312131
 Leave Link  202 at Tue Nov 19 11:18:34 2019, MaxMem=   939524096 cpu:         0.0
 (Enter /scr/programas/g09/l301.exe)
 General basis read from cards:  (5D, 7F)
 Centers:       6      8     10     11     12     19     21     23     24     25
 Centers:      30     32     34     35     36     41     43     45     46     47
 Centers:      52     54     56     57     58     63     65     67     68     69
 Centers:      74     76     78     79     80     86     88     90     91     92
 Centers:      97     99    101    102    103
 S 5 1.00
     Exponent=  2.8295215633D+02 Coefficients=  4.3000000000D-04
     Exponent=  8.7062201949D+01 Coefficients=  5.1000000000D-04
     Exponent=  2.6788369830D+01 Coefficients=  6.1600000000D-03
     Exponent=  8.2425753324D+00 Coefficients=  1.3030000000D-02
     Exponent=  2.5361770254D+00 Coefficients=  9.9490000000D-02
 S 1 1.00
     Exponent=  7.8036216165D-01 Coefficients=  1.0000000000D+00
 S 1 1.00
     Exponent=  2.4011143435D-01 Coefficients=  1.0000000000D+00
 P 1 1.00
     Exponent=  8.8150000000D-01 Coefficients=  1.0000000000D+00
 P 1 1.00
     Exponent=  1.7989200000D-01 Coefficients=  1.0000000000D+00
 ****
 Centers:       2      3      4      5      7      9     15     16     17     18
 Centers:      20     22     26     27     28     29     31     33     37     38
 Centers:      39     40     42     44     48     49     50     51     53     55
 Centers:      59     60     61     62     64     66     70     71     72     73
 Centers:      75     77     82     83     84     85     87     89     93     94
 Centers:      95     96     98    100
 S 6 1.00
     Exponent=  8.8461235339D+03 Coefficients=  5.3000000000D-04
     Exponent=  2.9487078446D+03 Coefficients=  7.7000000000D-04
     Exponent=  9.8290261488D+02 Coefficients=  4.0500000000D-03
     Exponent=  3.2763420496D+02 Coefficients=  1.4030000000D-02
     Exponent=  1.0921140165D+02 Coefficients=  5.3450000000D-02
     Exponent=  3.6403800551D+01 Coefficients=  1.7027000000D-01
 S 1 1.00
     Exponent=  1.2134600184D+01 Coefficients=  1.0000000000D+00
 S 1 1.00
     Exponent=  4.0448667279D+00 Coefficients=  1.0000000000D+00
 S 1 1.00
     Exponent=  1.3482889093D+00 Coefficients=  1.0000000000D+00
 S 1 1.00
     Exponent=  4.4942963643D-01 Coefficients=  1.0000000000D+00
 S 1 1.00
     Exponent=  1.4980987881D-01 Coefficients=  1.0000000000D+00
 P 4 1.00
     Exponent=  3.7294093393D+01 Coefficients=  3.9600000000D-03
     Exponent=  1.1475105659D+01 Coefficients=  1.8890000000D-02
     Exponent=  3.5308017414D+00 Coefficients=  9.4610000000D-02
     Exponent=  1.0864005358D+00 Coefficients=  3.1889000000D-01
 P 1 1.00
     Exponent=  3.3427708794D-01 Coefficients=  1.0000000000D+00
 P 1 1.00
     Exponent=  1.0285448860D-01 Coefficients=  1.0000000000D+00
 D 1 1.00
     Exponent=  4.7750000000D-01 Coefficients=  1.0000000000D+00
 D 1 1.00
     Exponent=  1.1998000000D-01 Coefficients=  1.0000000000D+00
 ****
 Centers:      13     14
 S 7 1.00
     Exponent=  5.9538004301D+04 Coefficients=  9.5000000000D-04
     Exponent=  2.1650183382D+04 Coefficients=  6.1000000000D-04
     Exponent=  7.8727939572D+03 Coefficients=  3.7500000000D-03
     Exponent=  2.8628341663D+03 Coefficients=  9.6300000000D-03
     Exponent=  1.0410306059D+03 Coefficients=  3.2430000000D-02
     Exponent=  3.7855658397D+02 Coefficients=  9.9500000000D-02
     Exponent=  1.3765693962D+02 Coefficients=  2.6570000000D-01
 S 1 1.00
     Exponent=  5.0057068954D+01 Coefficients=  1.0000000000D+00
 S 1 1.00
     Exponent=  1.8202570529D+01 Coefficients=  1.0000000000D+00
 S 1 1.00
     Exponent=  6.6191165560D+00 Coefficients=  1.0000000000D+00
 S 1 1.00
     Exponent=  2.4069514749D+00 Coefficients=  1.0000000000D+00
 S 1 1.00
     Exponent=  8.7525508178D-01 Coefficients=  1.0000000000D+00
 S 1 1.00
     Exponent=  3.1827457519D-01 Coefficients=  1.0000000000D+00
 S 1 1.00
     Exponent=  1.1573620916D-01 Coefficients=  1.0000000000D+00
 S 1 1.00
     Exponent=  4.2085894240D-02 Coefficients=  1.0000000000D+00
 P 5 1.00
     Exponent=  4.8799672315D+02 Coefficients=  2.1600000000D-03
     Exponent=  1.6266557438D+02 Coefficients=  9.7900000000D-03
     Exponent=  5.4221858128D+01 Coefficients=  5.4850000000D-02
     Exponent=  1.8073952709D+01 Coefficients=  2.1770000000D-01
     Exponent=  6.0246509031D+00 Coefficients=  4.8978000000D-01
 P 1 1.00
     Exponent=  2.0082169677D+00 Coefficients=  1.0000000000D+00
 P 1 1.00
     Exponent=  6.6940565590D-01 Coefficients=  1.0000000000D+00
 P 1 1.00
     Exponent=  2.2313521863D-01 Coefficients=  1.0000000000D+00
 P 1 1.00
     Exponent=  7.4378406211D-02 Coefficients=  1.0000000000D+00
 P 1 1.00
     Exponent=  2.4792802070D-02 Coefficients=  1.0000000000D+00
 D 1 1.00
     Exponent=  3.5395000000D-01 Coefficients=  1.0000000000D+00
 D 1 1.00
     Exponent=  8.9098000000D-02 Coefficients=  1.0000000000D+00
 ****
 Centers:     104
 S 7 1.00
     Exponent=  7.7142817164D+04 Coefficients=  1.0600000000D-03
     Exponent=  2.8051933514D+04 Coefficients=  6.4000000000D-04
     Exponent=  1.0200703096D+04 Coefficients=  3.9600000000D-03
     Exponent=  3.7093465804D+03 Coefficients=  9.8300000000D-03
     Exponent=  1.3488533020D+03 Coefficients=  3.2690000000D-02
     Exponent=  4.9049210981D+02 Coefficients=  9.9520000000D-02
     Exponent=  1.7836076720D+02 Coefficients=  2.6555000000D-01
 S 1 1.00
     Exponent=  6.4858460801D+01 Coefficients=  1.0000000000D+00
 S 1 1.00
     Exponent=  2.3584894837D+01 Coefficients=  1.0000000000D+00
 S 1 1.00
     Exponent=  8.5763253951D+00 Coefficients=  1.0000000000D+00
 S 1 1.00
     Exponent=  3.1186637801D+00 Coefficients=  1.0000000000D+00
 S 1 1.00
     Exponent=  1.1340595564D+00 Coefficients=  1.0000000000D+00
 S 1 1.00
     Exponent=  4.1238529323D-01 Coefficients=  1.0000000000D+00
 S 1 1.00
     Exponent=  1.4995828845D-01 Coefficients=  1.0000000000D+00
 S 1 1.00
     Exponent=  5.4530286708D-02 Coefficients=  1.0000000000D+00
 P 5 1.00
     Exponent=  6.9498536057D+02 Coefficients=  2.0000000000D-03
     Exponent=  2.3166178686D+02 Coefficients=  8.9500000000D-03
     Exponent=  7.7220595619D+01 Coefficients=  5.1130000000D-02
     Exponent=  2.5740198540D+01 Coefficients=  2.1011000000D-01
     Exponent=  8.5800661799D+00 Coefficients=  4.9738000000D-01
 P 1 1.00
     Exponent=  2.8600220600D+00 Coefficients=  1.0000000000D+00
 P 1 1.00
     Exponent=  9.5334068665D-01 Coefficients=  1.0000000000D+00
 P 1 1.00
     Exponent=  3.1778022888D-01 Coefficients=  1.0000000000D+00
 P 1 1.00
     Exponent=  1.0592674296D-01 Coefficients=  1.0000000000D+00
 P 1 1.00
     Exponent=  3.5308914320D-02 Coefficients=  1.0000000000D+00
 D 1 1.00
     Exponent=  5.5696000000D-01 Coefficients=  1.0000000000D+00
 D 1 1.00
     Exponent=  1.5619100000D-01 Coefficients=  1.0000000000D+00
 ****
 Centers:      81
 S 8 1.00
     Exponent=  7.5448214551D+05 Coefficients=  4.4300000000D-03
     Exponent=  3.3532539800D+05 Coefficients=  1.9800000000D-03
     Exponent=  1.4903351022D+05 Coefficients=  9.0500000000D-03
     Exponent=  6.6237115655D+04 Coefficients=  4.8700000000D-03
     Exponent=  2.9438718069D+04 Coefficients=  2.0770000000D-02
     Exponent=  1.3083874697D+04 Coefficients=  3.2900000000D-02
     Exponent=  5.8150554210D+03 Coefficients=  7.7010000000D-02
     Exponent=  2.5844690760D+03 Coefficients=  1.5160000000D-01
 S 1 1.00
     Exponent=  1.1486529227D+03 Coefficients=  1.0000000000D+00
 S 1 1.00
     Exponent=  5.1051241008D+02 Coefficients=  1.0000000000D+00
 S 1 1.00
     Exponent=  2.2689440448D+02 Coefficients=  1.0000000000D+00
 S 1 1.00
     Exponent=  1.0084195755D+02 Coefficients=  1.0000000000D+00
 S 1 1.00
     Exponent=  4.4818647798D+01 Coefficients=  1.0000000000D+00
 S 1 1.00
     Exponent=  1.9919399021D+01 Coefficients=  1.0000000000D+00
 S 1 1.00
     Exponent=  8.8530662317D+00 Coefficients=  1.0000000000D+00
 S 1 1.00
     Exponent=  3.9346961030D+00 Coefficients=  1.0000000000D+00
 S 1 1.00
     Exponent=  1.7487538235D+00 Coefficients=  1.0000000000D+00
 S 1 1.00
     Exponent=  7.7722392158D-01 Coefficients=  1.0000000000D+00
 S 1 1.00
     Exponent=  3.4543285403D-01 Coefficients=  1.0000000000D+00
 S 1 1.00
     Exponent=  1.5352571290D-01 Coefficients=  1.0000000000D+00
 S 1 1.00
     Exponent=  6.8233650180D-02 Coefficients=  1.0000000000D+00
 S 1 1.00
     Exponent=  1.3478251887D-02 Coefficients=  1.0000000000D+00
 P 5 1.00
     Exponent=  1.0090658304D+04 Coefficients=  2.7500000000D-03
     Exponent=  4.0362633217D+03 Coefficients=  4.1800000000D-03
     Exponent=  1.6145053287D+03 Coefficients=  2.0890000000D-02
     Exponent=  6.4580213147D+02 Coefficients=  7.1370000000D-02
     Exponent=  2.5832085259D+02 Coefficients=  2.2613000000D-01
 P 1 1.00
     Exponent=  1.0332834104D+02 Coefficients=  1.0000000000D+00
 P 1 1.00
     Exponent=  4.1331336414D+01 Coefficients=  1.0000000000D+00
 P 1 1.00
     Exponent=  1.6532534566D+01 Coefficients=  1.0000000000D+00
 P 1 1.00
     Exponent=  6.6130138263D+00 Coefficients=  1.0000000000D+00
 P 1 1.00
     Exponent=  2.6452055305D+00 Coefficients=  1.0000000000D+00
 P 1 1.00
     Exponent=  1.0580822122D+00 Coefficients=  1.0000000000D+00
 P 1 1.00
     Exponent=  4.2323288488D-01 Coefficients=  1.0000000000D+00
 P 1 1.00
     Exponent=  1.6929315395D-01 Coefficients=  1.0000000000D+00
 P 1 1.00
     Exponent=  6.7717261581D-02 Coefficients=  1.0000000000D+00
 P 1 1.00
     Exponent=  2.7086904632D-02 Coefficients=  1.0000000000D+00
 P 1 1.00
     Exponent=  1.0834761853D-02 Coefficients=  1.0000000000D+00
 D 4 1.00
     Exponent=  5.5430250651D+02 Coefficients=  4.3700000000D-03
     Exponent=  2.0156454782D+02 Coefficients=  2.5110000000D-02
     Exponent=  7.3296199207D+01 Coefficients=  1.3316000000D-01
     Exponent=  2.6653163348D+01 Coefficients=  3.8900000000D-01
 D 1 1.00
     Exponent=  9.6920593993D+00 Coefficients=  1.0000000000D+00
 D 1 1.00
     Exponent=  3.5243852361D+00 Coefficients=  1.0000000000D+00
 D 1 1.00
     Exponent=  1.2815946313D+00 Coefficients=  1.0000000000D+00
 D 1 1.00
     Exponent=  4.6603441139D-01 Coefficients=  1.0000000000D+00
 D 1 1.00
     Exponent=  1.6946705869D-01 Coefficients=  1.0000000000D+00
 F 1 1.00
     Exponent=  1.3140000000D+00 Coefficients=  1.0000000000D+00
 F 1 1.00
     Exponent=  1.9993000000D-01 Coefficients=  1.0000000000D+00
 ****
 Centers:       1
 S 9 1.00
     Exponent=  2.1644816090D+06 Coefficients=  1.2320000000D-02
     Exponent=  1.0822408045D+06 Coefficients=  1.2970000000D-02
     Exponent=  5.4112040224D+05 Coefficients=  2.6370000000D-02
     Exponent=  2.7056020112D+05 Coefficients=  9.0400000000D-03
     Exponent=  1.3528010056D+05 Coefficients=  3.4980000000D-02
     Exponent=  6.7640050280D+04 Coefficients=  1.2220000000D-02
     Exponent=  3.3820025140D+04 Coefficients=  6.0520000000D-02
     Exponent=  1.6910012570D+04 Coefficients=  6.4930000000D-02
     Exponent=  8.4550062850D+03 Coefficients=  1.3819000000D-01
 S 1 1.00
     Exponent=  4.2275031425D+03 Coefficients=  1.0000000000D+00
 S 1 1.00
     Exponent=  2.1137515713D+03 Coefficients=  1.0000000000D+00
 S 1 1.00
     Exponent=  1.0568757856D+03 Coefficients=  1.0000000000D+00
 S 1 1.00
     Exponent=  5.2843789281D+02 Coefficients=  1.0000000000D+00
 S 1 1.00
     Exponent=  2.6421894641D+02 Coefficients=  1.0000000000D+00
 S 1 1.00
     Exponent=  1.3210947320D+02 Coefficients=  1.0000000000D+00
 S 1 1.00
     Exponent=  6.6054736602D+01 Coefficients=  1.0000000000D+00
 S 1 1.00
     Exponent=  3.3027368301D+01 Coefficients=  1.0000000000D+00
 S 1 1.00
     Exponent=  1.6513684150D+01 Coefficients=  1.0000000000D+00
 S 1 1.00
     Exponent=  8.2568420752D+00 Coefficients=  1.0000000000D+00
 S 1 1.00
     Exponent=  4.1284210376D+00 Coefficients=  1.0000000000D+00
 S 1 1.00
     Exponent=  2.0642105188D+00 Coefficients=  1.0000000000D+00
 S 1 1.00
     Exponent=  1.0321052594D+00 Coefficients=  1.0000000000D+00
 S 1 1.00
     Exponent=  5.1605262970D-01 Coefficients=  1.0000000000D+00
 S 1 1.00
     Exponent=  2.5802631485D-01 Coefficients=  1.0000000000D+00
 S 1 1.00
     Exponent=  1.2901315743D-01 Coefficients=  1.0000000000D+00
 S 1 1.00
     Exponent=  6.4506578713D-02 Coefficients=  1.0000000000D+00
 P 7 1.00
     Exponent=  3.2357915258D+04 Coefficients=  5.0200000000D-03
     Exponent=  1.4381295670D+04 Coefficients=  2.0200000000D-03
     Exponent=  6.3916869645D+03 Coefficients=  1.8070000000D-02
     Exponent=  2.8407497620D+03 Coefficients=  3.6620000000D-02
     Exponent=  1.2625554498D+03 Coefficients=  1.1172000000D-01
     Exponent=  5.6113575545D+02 Coefficients=  2.5586000000D-01
     Exponent=  2.4939366909D+02 Coefficients=  4.2608000000D-01
 P 1 1.00
     Exponent=  1.1084163071D+02 Coefficients=  1.0000000000D+00
 P 1 1.00
     Exponent=  4.9262946981D+01 Coefficients=  1.0000000000D+00
 P 1 1.00
     Exponent=  2.1894643103D+01 Coefficients=  1.0000000000D+00
 P 1 1.00
     Exponent=  9.7309524900D+00 Coefficients=  1.0000000000D+00
 P 1 1.00
     Exponent=  4.3248677733D+00 Coefficients=  1.0000000000D+00
 P 1 1.00
     Exponent=  1.9221634548D+00 Coefficients=  1.0000000000D+00
 P 1 1.00
     Exponent=  8.5429486881D-01 Coefficients=  1.0000000000D+00
 P 1 1.00
     Exponent=  3.7968660836D-01 Coefficients=  1.0000000000D+00
 P 1 1.00
     Exponent=  1.6874960372D-01 Coefficients=  1.0000000000D+00
 P 1 1.00
     Exponent=  7.4999823874D-02 Coefficients=  1.0000000000D+00
 P 1 1.00
     Exponent=  3.3333255055D-02 Coefficients=  1.0000000000D+00
 D 5 1.00
     Exponent=  1.9119003508D+03 Coefficients=  4.3300000000D-03
     Exponent=  7.6476014031D+02 Coefficients=  1.7780000000D-02
     Exponent=  3.0590405613D+02 Coefficients=  8.9710000000D-02
     Exponent=  1.2236162245D+02 Coefficients=  3.1123000000D-01
     Exponent=  4.8944648980D+01 Coefficients=  5.3206000000D-01
 D 1 1.00
     Exponent=  1.9577859592D+01 Coefficients=  1.0000000000D+00
 D 1 1.00
     Exponent=  7.8311438368D+00 Coefficients=  1.0000000000D+00
 D 1 1.00
     Exponent=  3.1324575347D+00 Coefficients=  1.0000000000D+00
 D 1 1.00
     Exponent=  1.2529830139D+00 Coefficients=  1.0000000000D+00
 D 1 1.00
     Exponent=  5.0119320556D-01 Coefficients=  1.0000000000D+00
 D 1 1.00
     Exponent=  2.0047728222D-01 Coefficients=  1.0000000000D+00
 D 1 1.00
     Exponent=  8.0190912889D-02 Coefficients=  1.0000000000D+00
 D 1 1.00
     Exponent=  3.2076365156D-02 Coefficients=  1.0000000000D+00
 F 4 1.00
     Exponent=  8.2289680979D+01 Coefficients=  6.1870000000D-02
     Exponent=  2.9923520356D+01 Coefficients=  2.4823000000D-01
     Exponent=  1.0881280130D+01 Coefficients=  4.9956000000D-01
     Exponent=  3.9568291380D+00 Coefficients=  4.0380000000D-01
 F 1 1.00
     Exponent=  1.4388469593D+00 Coefficients=  1.0000000000D+00
 F 1 1.00
     Exponent=  5.2321707610D-01 Coefficients=  1.0000000000D+00
 G 1 1.00
     Exponent=  2.6700000000D+00 Coefficients=  1.0000000000D+00
 G 1 1.00
     Exponent=  9.0960000000D-01 Coefficients=  1.0000000000D+00
 ****
 Ernie: Thresh=  0.10000D-02 Tol=  0.10000D-05 Strict=F.
 There are  2255 symmetry adapted cartesian basis functions of A   symmetry.
 There are  2099 symmetry adapted basis functions of A   symmetry.
  2099 basis functions,  3362 primitive gaussians,  2255 cartesian basis functions
   272 alpha electrons      272 beta electrons
       nuclear repulsion energy     15420.0182098196 Hartrees.
 IExCor= 1009 DFT=T Ex=PBE Corr=PBE ExCW=0 ScaHFX=  0.000000
 ScaDFX=  1.000000  1.000000  1.000000  1.000000 ScalE2=  1.000000  1.000000
 IRadAn=      0 IRanWt=     -1 IRanGd=            0 ICorTp=0 IEmpDi=  4
 NAtoms=  104 NActive=  104 NUniq=  104 SFac= 1.00D+00 NAtFMM=   60 NAOKFM=T Big=T
 Integral buffers will be    131072 words long.
 Raffenetti 2 integral format.
 Two-electron integral symmetry is turned on.
 ------------------------------------------------------------------------------
 Polarizable Continuum Model (PCM)
 =================================
 Model                : PCM (using non-symmetric T matrix).
 Atomic radii         : UFF (Universal Force Field).
 Polarization charges : Total charges.
 Charge compensation  : None.
 Solution method      : On-the-fly selection.
 Cavity type          : Scaled VdW (van der Waals Surface) (Alpha=1.100).
 Cavity algorithm     : GePol (No added spheres)
                        Default sphere list used, NSphG=  104.
                        Lebedev-Laikov grids with approx.  5.0 points / Ang**2.
                        Smoothing algorithm: Karplus/York (Gamma=1.0000).
                        Polarization charges: spherical gaussians, with
                                              point-specific exponents (IZeta= 3).
                        Self-potential: point-specific (ISelfS= 7).
                        Self-field    : sphere-specific E.n sum rule (ISelfD= 2).
 Solvent              : Dichloromethane, Eps=   8.930000 Eps(inf)=   2.028346
 ------------------------------------------------------------------------------
 GePol: Number of generator spheres                  =     104
 GePol: Total number of spheres                      =     104
 GePol: Number of exposed spheres                    =     104 (100.00%)
 GePol: Number of points                             =    7356
 GePol: Average weight of points                     =       0.12
 GePol: Minimum weight of points                     =   0.25D-11
 GePol: Maximum weight of points                     =    0.21838
 GePol: Number of points with low weight             =     579
 GePol: Fraction of low-weight points (<1% of avg)   =       7.87%
 GePol: Cavity surface area                          =    914.752 Ang**2
 GePol: Cavity volume                                =   1164.366 Ang**3
 Leave Link  301 at Tue Nov 19 11:18:34 2019, MaxMem=   939524096 cpu:         1.0
 (Enter /scr/programas/g09/l302.exe)
 NPDir=0 NMtPBC=     1 NCelOv=     1 NCel=       1 NClECP=     1 NCelD=      1
         NCelK=      1 NCelE2=     1 NClLst=     1 CellRange=     0.0.
 One-electron integrals computed using PRISM.
 NBasis=  2099 RedAO= T EigKep=  1.39D-06  NBF=  2099
 NBsUse=  2099 1.00D-06 EigRej= -1.00D+00 NBFU=  2099
 Precomputing XC quadrature grid using
 IXCGrd= 4 IRadAn=           0 IRanWt=          -1 IRanGd=           0 AccXCQ= 0.00D+00.
 Defaulting to unpruned grid for atomic number  78.
 Defaulting to unpruned grid for atomic number  50.
 Generated NRdTot=       0 NPtTot=           0 NUsed=           0 NTot=          32
 NSgBfM=  1898  1902  1904  1916  1922 MxSgAt=   104 MxSgA2=   104.
 Leave Link  302 at Tue Nov 19 11:19:10 2019, MaxMem=   939524096 cpu:       131.7
 (Enter /scr/programas/g09/l308.exe)
 Leave Link  308 at Tue Nov 19 11:19:12 2019, MaxMem=   939524096 cpu:         8.0
 (Enter /scr/programas/g09/l303.exe)
 DipDrv:  MaxL=1.
 Leave Link  303 at Tue Nov 19 11:19:14 2019, MaxMem=   939524096 cpu:         4.8
 (Enter /scr/programas/g09/l401.exe)
 ExpMin= 1.08D-02 ExpMax= 2.16D+06 ExpMxC= 2.16D+06 IAcc=4 IRadAn=    199590 AccDes= 0.00D+00
 Harris functional with IExCor= 1009 and IRadAn=  199590 diagonalized for initial guess.
 HarFok:  IExCor= 1009 AccDes= 0.00D+00 IRadAn=    199590 IDoV= 1 UseB2=F ITyADJ=14
 ICtDFT=  3500011 ScaDFX=  1.000000  1.000000  1.000000  1.000000
 FoFCou: FMM=F IPFlag=           0 FMFlag=      100000 FMFlg1=        2001
         NFxFlg=           0 DoJE=T BraDBF=F KetDBF=T FulRan=T
         wScrn=  0.000000 ICntrl=     500 IOpCl=  0 I1Cent=   200000004 NGrid=           0
         NMat0=    1 NMatS0=      1 NMatT0=    0 NMatD0=    1 NMtDS0=    0 NMtDT0=    0
 Petite list used in FoFCou.
 Harris En= -26331.6404640875    
 JPrj=0 DoOrth=F DoCkMO=F.
 Leave Link  401 at Tue Nov 19 11:37:45 2019, MaxMem=   939524096 cpu:      4129.8
 (Enter /scr/programas/g09/l502.exe)
 Closed shell SCF:
 Using DIIS extrapolation, IDIIS=  1040.
 Integral symmetry usage will be decided dynamically.
 IVT=    15539417 IEndB=    15539417 NGot=   939524096 MDV=   929322960
 LenX=   929322960 LenY=   924235680
 Requested convergence on RMS density matrix=1.00D-03 within 500 cycles.
 Requested convergence on MAX density matrix=1.00D-01.
 Requested convergence on             energy=1.00D-01.
 No special actions if energy rises.
 Fock matrices will be formed incrementally for  20 cycles.

 Cycle   1  Pass 1  IDiag  1:
 FoFJK:  IHMeth= 1 ICntrl=     500 DoSepK=F KAlg= 0 I1Cent=   0 FoldK=F
 IRaf= 620000000 NMat=   1 IRICut=       1 DoRegI=T DoRafI=F ISym2E= 0.
 FoFCou: FMM=T IPFlag=           0 FMFlag=      100000 FMFlg1=        2001
         NFxFlg=           0 DoJE=T BraDBF=F KetDBF=F FulRan=T
         wScrn=  0.000000 ICntrl=     500 IOpCl=  0 I1Cent=           0 NGrid=           0
         NMat0=    1 NMatS0=      1 NMatT0=    0 NMatD0=    1 NMtDS0=    0 NMtDT0=    0
 Symmetry not used in FoFCou.
 FMM levels:  10  Number of levels for PrismC:   9
 Defaulting to unpruned grid for atomic number  78.
 Defaulting to unpruned grid for atomic number  78.
 Defaulting to unpruned grid for atomic number  78.
 Defaulting to unpruned grid for atomic number  78.
 Inv3:  Mode=1 IEnd=   162332208.
 Iteration    1 A*A^-1 deviation from unit magnitude is 1.31D-14 for   6538.
 Iteration    1 A*A^-1 deviation from orthogonality  is 1.18D-14 for   4487   4198.
 Iteration    1 A^-1*A deviation from unit magnitude is 1.69D-14 for   5674.
 Iteration    1 A^-1*A deviation from orthogonality  is 1.54D-07 for   4669   4662.
 Iteration    2 A*A^-1 deviation from unit magnitude is 1.07D-14 for   5573.
 Iteration    2 A*A^-1 deviation from orthogonality  is 1.18D-14 for   6190   2828.
 Iteration    2 A^-1*A deviation from unit magnitude is 2.22D-15 for   2360.
 Iteration    2 A^-1*A deviation from orthogonality  is 9.78D-16 for   1805   1784.
 E= -26310.2959413275    
 DIIS: error= 1.47D-01 at cycle   1 NSaved=   1.
 NSaved= 1 IEnMin= 1 EnMin= -26310.2959413275     IErMin= 1 ErrMin= 1.47D-01
 ErrMax= 1.47D-01  0.00D+00 EMaxC= 1.00D-01 BMatC= 3.36D+02 BMatP= 3.36D+02
 IDIUse=3 WtCom= 0.00D+00 WtEn= 1.00D+00
 Coeff-Com:  0.100D+01
 Coeff-En:   0.100D+01
 Coeff:      0.100D+01
 Gap=     0.663 Goal=   None    Shift=    0.000
 GapD=    0.663 DampG=2.000 DampE=0.125 DampFc=0.2500 IDamp=-1.
 Damping current iteration by 2.50D-01
 RMSDP=2.28D-02 MaxDP=7.24D+00              OVMax= 7.31D-01

 Cycle   2  Pass 1  IDiag  1:
 RMSU=  5.49D-03    CP:  1.12D+00
 E= -26312.0398241077     Delta-E=       -1.743882780211 Rises=F Damp=T
 DIIS: error= 1.01D-01 at cycle   2 NSaved=   2.
 NSaved= 2 IEnMin= 2 EnMin= -26312.0398241077     IErMin= 2 ErrMin= 1.01D-01
 ErrMax= 1.01D-01  0.00D+00 EMaxC= 1.00D-01 BMatC= 1.61D+02 BMatP= 3.36D+02
 IDIUse=3 WtCom= 0.00D+00 WtEn= 1.00D+00
 Coeff-Com: -0.190D+01 0.290D+01
 Coeff-En:   0.195D+00 0.805D+00
 Coeff:      0.195D+00 0.805D+00
 Gap=    -0.074 Goal=   None    Shift=    0.000
 RMSDP=6.21D-03 MaxDP=1.20D+00 DE=-1.74D+00 OVMax= 9.67D-01

 Cycle   3  Pass 1  IDiag  1:
 RMSU=  4.78D-03    CP:  9.24D-01  4.30D-01
 E= -26313.9087139414     Delta-E=       -1.868889833764 Rises=F Damp=F
 DIIS: error= 6.76D-02 at cycle   3 NSaved=   3.
 NSaved= 3 IEnMin= 3 EnMin= -26313.9087139414     IErMin= 3 ErrMin= 6.76D-02
 ErrMax= 6.76D-02  0.00D+00 EMaxC= 1.00D-01 BMatC= 1.58D+01 BMatP= 1.61D+02
 IDIUse=3 WtCom= 3.24D-01 WtEn= 6.76D-01
 EnCoef did   100 forward-backward iterations
 Coeff-Com:  0.754D+00-0.853D+00 0.110D+01
 Coeff-En:   0.320D+00 0.621D-02 0.674D+00
 Coeff:      0.461D+00-0.273D+00 0.812D+00
 Gap=     0.437 Goal=   None    Shift=    0.000
 RMSDP=1.01D-02 MaxDP=1.43D+00 DE=-1.87D+00 OVMax= 6.81D-01

 Cycle   4  Pass 1  IDiag  1:
 RMSU=  7.32D-03    CP:  1.25D+00  7.91D-01 -8.32D-02
 E= -26304.0701711908     Delta-E=        9.838542750607 Rises=F Damp=F
 DIIS: error= 4.76D-02 at cycle   4 NSaved=   4.
 NSaved= 4 IEnMin= 3 EnMin= -26313.9087139414     IErMin= 4 ErrMin= 4.76D-02
 ErrMax= 4.76D-02  0.00D+00 EMaxC= 1.00D-01 BMatC= 1.20D+01 BMatP= 1.58D+01
 IDIUse=3 WtCom= 5.24D-01 WtEn= 4.76D-01
 EnCoef did     7 forward-backward iterations
 Coeff-Com:  0.503D+00-0.600D+00 0.697D+00 0.401D+00
 Coeff-En:   0.238D+00 0.000D+00 0.643D+00 0.119D+00
 Coeff:      0.377D+00-0.315D+00 0.671D+00 0.267D+00
 Gap=     0.068 Goal=   None    Shift=    0.000
 RMSDP=9.31D-03 MaxDP=1.81D+00 DE= 9.84D+00 OVMax= 7.44D-01

 Cycle   5  Pass 1  IDiag  1:
 RMSU=  2.04D-03    CP:  9.14D-01  2.94D-01  4.80D-01  3.60D-02
 E= -26316.1702002157     Delta-E=      -12.100029024856 Rises=F Damp=F
 DIIS: error= 1.53D-02 at cycle   5 NSaved=   5.
 NSaved= 5 IEnMin= 5 EnMin= -26316.1702002157     IErMin= 5 ErrMin= 1.53D-02
 ErrMax= 1.53D-02  0.00D+00 EMaxC= 1.00D-01 BMatC= 8.74D-01 BMatP= 1.20D+01
 IDIUse=3 WtCom= 8.47D-01 WtEn= 1.53D-01
 EnCoef did     3 forward-backward iterations
 Coeff-Com:  0.135D-03 0.238D-01 0.187D+00 0.137D+00 0.652D+00
 Coeff-En:   0.000D+00 0.000D+00 0.553D-01 0.565D-01 0.888D+00
 Coeff:      0.114D-03 0.201D-01 0.167D+00 0.125D+00 0.688D+00
 Gap=     0.189 Goal=   None    Shift=    0.000
 RMSDP=3.17D-03 MaxDP=4.44D-01 DE=-1.21D+01 OVMax= 3.44D-01

 Cycle   6  Pass 1  IDiag  1:
 RMSU=  1.88D-03    CP:  9.67D-01  2.53D-01  5.02D-01  1.32D-01 -1.48D-01
 E= -26315.8882911693     Delta-E=        0.281909046411 Rises=F Damp=F
 DIIS: error= 7.68D-03 at cycle   6 NSaved=   6.
 NSaved= 6 IEnMin= 5 EnMin= -26316.1702002157     IErMin= 6 ErrMin= 7.68D-03
 ErrMax= 7.68D-03  0.00D+00 EMaxC= 1.00D-01 BMatC= 9.35D-01 BMatP= 8.74D-01
 IDIUse=3 WtCom= 9.23D-01 WtEn= 7.68D-02
 Coeff-Com: -0.683D-01 0.100D+00 0.433D-01 0.400D-01 0.525D+00 0.359D+00
 Coeff-En:   0.000D+00 0.000D+00 0.000D+00 0.000D+00 0.562D+00 0.438D+00
 Coeff:     -0.630D-01 0.926D-01 0.400D-01 0.369D-01 0.528D+00 0.365D+00
 Gap=     0.122 Goal=   None    Shift=    0.000
 RMSDP=1.94D-03 MaxDP=2.87D-01 DE= 2.82D-01 OVMax= 2.25D-01

 Cycle   7  Pass 1  IDiag  1:
 RMSU=  9.41D-04    CP:  9.37D-01  2.50D-01  5.01D-01  9.95D-02  4.05D-01
                    CP:  3.71D-01
 E= -26316.8191830263     Delta-E=       -0.930891857002 Rises=F Damp=F
 DIIS: error= 2.26D-03 at cycle   7 NSaved=   7.
 NSaved= 7 IEnMin= 7 EnMin= -26316.8191830263     IErMin= 7 ErrMin= 2.26D-03
 ErrMax= 2.26D-03  0.00D+00 EMaxC= 1.00D-01 BMatC= 7.35D-02 BMatP= 8.74D-01
 IDIUse=3 WtCom= 9.77D-01 WtEn= 2.26D-02
 Coeff-Com: -0.567D-01 0.793D-01 0.101D-02 0.309D-03 0.266D+00 0.240D+00
 Coeff-Com:  0.470D+00
 Coeff-En:   0.000D+00 0.000D+00 0.000D+00 0.000D+00 0.000D+00 0.253D-01
 Coeff-En:   0.975D+00
 Coeff:     -0.554D-01 0.775D-01 0.983D-03 0.302D-03 0.260D+00 0.235D+00
 Coeff:      0.481D+00
 Gap=     0.112 Goal=   None    Shift=    0.000
 RMSDP=5.97D-04 MaxDP=9.18D-02 DE=-9.31D-01 OVMax= 8.33D-02

 Cycle   8  Pass 1  IDiag  1:
 RMSU=  4.63D-04    CP:  9.32D-01  2.63D-01  4.95D-01  9.90D-02  4.51D-01
                    CP:  4.51D-01  6.63D-01
 E= -26316.8780903884     Delta-E=       -0.058907362123 Rises=F Damp=F
 DIIS: error= 1.38D-03 at cycle   8 NSaved=   8.
 NSaved= 8 IEnMin= 8 EnMin= -26316.8780903884     IErMin= 8 ErrMin= 1.38D-03
 ErrMax= 1.38D-03  0.00D+00 EMaxC= 1.00D-01 BMatC= 1.59D-02 BMatP= 7.35D-02
 IDIUse=3 WtCom= 9.86D-01 WtEn= 1.38D-02
 Coeff-Com: -0.149D-01 0.205D-01-0.283D-02-0.220D-02 0.814D-01 0.769D-01
 Coeff-Com:  0.320D+00 0.521D+00
 Coeff-En:   0.000D+00 0.000D+00 0.000D+00 0.000D+00 0.000D+00 0.000D+00
 Coeff-En:   0.225D+00 0.775D+00
 Coeff:     -0.147D-01 0.202D-01-0.279D-02-0.217D-02 0.803D-01 0.758D-01
 Coeff:      0.319D+00 0.525D+00
 Gap=     0.115 Goal=   None    Shift=    0.000
 RMSDP=3.74D-04 MaxDP=4.22D-02 DE=-5.89D-02 OVMax= 4.35D-02

 Error on total polarization charges =  0.02483
 SCF Done:  E(RPBE-PBE) =  -26316.8780904     A.U. after    8 cycles
            NFock=  8  Conv=0.37D-03     -V/T= 2.0158
 KE= 2.590831185967D+04 PE=-9.305148626248D+04 EE= 2.540627810260D+04
 Leave Link  502 at Tue Nov 19 16:18:20 2019, MaxMem=   939524096 cpu:     64805.5
 (Enter /scr/programas/g09/l801.exe)
 Range of M.O.s used for correlation:     1  2099
 NBasis=  2099 NAE=   272 NBE=   272 NFC=     0 NFV=     0
 NROrb=   2099 NOA=   272 NOB=   272 NVA=  1827 NVB=  1827

 **** Warning!!: The largest alpha MO coefficient is  0.77322427D+02

 Leave Link  801 at Tue Nov 19 16:18:21 2019, MaxMem=   939524096 cpu:         0.5
 (Enter /scr/programas/g09/l1002.exe)
 Minotr:  Closed shell wavefunction.
 NEqPCM:  Using equilibrium solvation (IEInf=0, Eps=   8.9300, EpsInf=   2.0283)
          Direct CPHF calculation.
          Differentiating once with respect to magnetic field using GIAOs.
          Electric field/nuclear overlap derivatives assumed to be zero.
          Requested convergence is 1.0D-08 RMS, and 1.0D-07 maximum.
          Secondary convergence is 1.0D-12 RMS, and 1.0D-12 maximum.
          NewPWx=T KeepS1=F KeepF1=F KeepIn=T MapXYZ=F SortEE=F KeepMc=T.
          MDV=     939521161 using IRadAn=       2.
 Defaulting to unpruned grid for atomic number  78.
 Defaulting to unpruned grid for atomic number  50.
 Generate precomputed XC quadrature information.
          Solving linear equations simultaneously, MaxMat=      72.
 FoFJK:  IHMeth= 1 ICntrl=    6127 DoSepK=F KAlg= 0 I1Cent=   0 FoldK=F
 IRaf=         1 NMat=   1 IRICut=       1 DoRegI=T DoRafI=F ISym2E= 0.
 Defaulting to unpruned grid for atomic number  78.
 Defaulting to unpruned grid for atomic number  78.
 Defaulting to unpruned grid for atomic number  78.
 Defaulting to unpruned grid for atomic number  78.
          There are     3 degrees of freedom in the 1st order CPHF.  IDoFFX=0 NUNeed=     3.
      3 vectors produced by pass  0 Test12= 1.66D-11 3.33D-08 XBig12= 1.16D+04 6.59D+00.
 AX will form     3 AO Fock derivatives at one time.
 InvSVY:  IOpt=1 It=  1 EMax= 0.00D+00
 Solved reduced A of dimension     3 with     3 vectors.
 Calculating GIAO nuclear magnetic shielding tensors.
 SCF GIAO Magnetic shielding tensor (ppm):
      1  Pt   Isotropic =  2779.4948   Anisotropy =  2137.4189
   XX=  2934.9616   YX=  -304.4829   ZX=  -165.9127
   XY=  -556.2669   YY=  3868.9918   ZY=   799.2156
   XZ=  -126.8551   YZ=   519.7943   ZZ=  1534.5310
   Eigenvalues:  1360.4112  2773.6325  4204.4407
      2  C    Isotropic =   139.1696   Anisotropy =   214.5896
   XX=   193.8089   YX=  -108.9102   ZX=   -10.8522
   XY=   -28.6376   YY=   214.6363   ZY=    80.0080
   XZ=    13.0578   YZ=    45.8290   ZZ=     9.0637
   Eigenvalues:   -10.7462   146.0257   282.2294
      3  C    Isotropic =   178.8005   Anisotropy =   353.7000
   XX=   404.0368   YX=    50.8238   ZX=    -8.5560
   XY=    47.4213   YY=    58.2216   ZY=   121.6549
   XZ=    58.7917   YZ=    23.8012   ZZ=    74.1433
   Eigenvalues:    -7.9759   129.7770   414.6006
      4  C    Isotropic =   166.2882   Anisotropy =   245.5744
   XX=   301.4183   YX=    12.2383   ZX=   109.8027
   XY=    57.1088   YY=   154.6939   ZY=   -50.4490
   XZ=    51.3774   YZ=    33.8560   ZZ=    42.7524
   Eigenvalues:    17.4120   151.4481   330.0044
      5  C    Isotropic =    14.5829   Anisotropy =    77.1409
   XX=     8.7871   YX=    26.2972   ZX=   -40.5196
   XY=    -4.5538   YY=   -20.1565   ZY=    61.2580
   XZ=    -6.2695   YZ=   -31.2349   ZZ=    55.1181
   Eigenvalues:   -29.8132     7.5517    66.0102
      6  H    Isotropic =    22.3938   Anisotropy =    11.5534
   XX=    19.4221   YX=    -6.8889   ZX=     1.3694
   XY=    -3.6092   YY=    24.8227   ZY=    -1.7983
   XZ=    -1.7286   YZ=    -7.1568   ZZ=    22.9366
   Eigenvalues:    15.2789    21.8064    30.0961
      7  C    Isotropic =     2.4720   Anisotropy =    80.5786
   XX=   -18.0620   YX=    -6.2296   ZX=    46.6111
   XY=    13.0215   YY=    14.9180   ZY=   -82.9058
   XZ=     2.7236   YZ=     2.1816   ZZ=    10.5600
   Eigenvalues:   -44.5317    -4.2434    56.1911
      8  H    Isotropic =    21.8876   Anisotropy =    17.1356
   XX=    13.5007   YX=    -5.5389   ZX=    -5.2155
   XY=    -1.8092   YY=    23.3587   ZY=     5.1170
   XZ=    -3.9066   YZ=     4.5153   ZZ=    28.8034
   Eigenvalues:    11.7275    20.6240    33.3114
      9  C    Isotropic =   -65.4390   Anisotropy =   119.5136
   XX=  -155.1454   YX=   -18.3943   ZX=   -32.7630
   XY=   -21.7487   YY=   -42.1769   ZY=   -23.9196
   XZ=   -24.8473   YZ=   -25.3458   ZZ=     1.0054
   Eigenvalues:  -165.1085   -45.4452    14.2367
     10  H    Isotropic =    19.8236   Anisotropy =    11.2950
   XX=    15.5561   YX=    -5.5510   ZX=    -0.4431
   XY=    -2.3373   YY=    26.0301   ZY=     2.5410
   XZ=    -1.6858   YZ=    -2.8277   ZZ=    17.8844
   Eigenvalues:    13.9537    18.1634    27.3536
     11  H    Isotropic =    20.0006   Anisotropy =    13.1891
   XX=    13.2017   YX=    -4.2746   ZX=    -3.1222
   XY=    -3.3571   YY=    24.4609   ZY=     0.9267
   XZ=    -3.0610   YZ=     6.4711   ZZ=    22.3392
   Eigenvalues:    11.6532    19.5552    28.7933
     12  H    Isotropic =    18.5542   Anisotropy =    12.7798
   XX=    10.0708   YX=    -7.1399   ZX=    -2.5107
   XY=    -3.5293   YY=    24.8877   ZY=     1.1042
   XZ=    -2.2777   YZ=     0.9108   ZZ=    20.7041
   Eigenvalues:     8.0400    20.5486    27.0741
     13  P    Isotropic =   315.1004   Anisotropy =    70.6846
   XX=   307.1732   YX=   -41.0946   ZX=    -5.3252
   XY=     6.3831   YY=   356.6920   ZY=    35.4388
   XZ=    -1.7524   YZ=   -33.2842   ZZ=   281.4361
   Eigenvalues:   280.9340   302.1438   362.2234
     14  P    Isotropic =   284.0876   Anisotropy =    69.8273
   XX=   261.8442   YX=   -40.8172   ZX=    -6.5437
   XY=   -29.5630   YY=   312.5677   ZY=     8.2710
   XZ=    38.1623   YZ=    11.6358   ZZ=   277.8509
   Eigenvalues:   235.6235   286.0003   330.6391
     15  C    Isotropic =    57.2686   Anisotropy =   108.2183
   XX=    68.5749   YX=     5.1521   ZX=   -45.1648
   XY=   -74.8859   YY=    35.8781   ZY=    85.8138
   XZ=   -30.6256   YZ=   -22.8784   ZZ=    67.3528
   Eigenvalues:    12.1532    30.2385   129.4141
     16  C    Isotropic =    66.9597   Anisotropy =   217.8801
   XX=    10.2572   YX=   -66.5239   ZX=   -65.6596
   XY=   -71.2356   YY=   166.2459   ZY=    42.2681
   XZ=   -43.7048   YZ=    45.1529   ZZ=    24.3760
   Eigenvalues:   -41.2255    29.8915   212.2131
     17  C    Isotropic =    40.2698   Anisotropy =   143.6750
   XX=    15.3076   YX=   -41.4182   ZX=   -17.1464
   XY=  -114.0609   YY=    60.7542   ZY=    39.5610
   XZ=   -62.0054   YZ=    -1.5769   ZZ=    44.7476
   Eigenvalues:   -47.8827    32.6390   136.0532
     18  C    Isotropic =    12.9792   Anisotropy =   128.4985
   XX=   -26.9606   YX=   -53.5686   ZX=    -1.7706
   XY=   -98.0780   YY=    37.8113   ZY=    43.1484
   XZ=     8.1339   YZ=    25.8551   ZZ=    28.0870
   Eigenvalues:   -81.4844    21.7771    98.6449
     19  H    Isotropic =    22.5252   Anisotropy =    15.1161
   XX=    26.5733   YX=     6.5301   ZX=    -7.4471
   XY=     2.8440   YY=    20.4210   ZY=    -3.2149
   XZ=    -2.4596   YZ=    -5.5632   ZZ=    20.5812
   Eigenvalues:    16.1083    18.8647    32.6026
     20  C    Isotropic =    22.8861   Anisotropy =   128.2324
   XX=    11.6464   YX=   -26.1338   ZX=   -42.2818
   XY=   -34.2931   YY=    90.0755   ZY=     9.6363
   XZ=   -72.1529   YZ=    16.3748   ZZ=   -33.0636
   Eigenvalues:   -72.3957    32.6796   108.3743
     21  H    Isotropic =    20.2598   Anisotropy =    14.5420
   XX=    19.9810   YX=     2.6913   ZX=     1.0192
   XY=     2.1448   YY=    12.8217   ZY=    -6.5932
   XZ=     1.5381   YZ=    -4.9836   ZZ=    27.9767
   Eigenvalues:    10.1234    20.7016    29.9545
     22  C    Isotropic =    46.8032   Anisotropy =   261.2479
   XX=    52.8013   YX=   -65.0744   ZX=   -30.4882
   XY=   -87.9579   YY=   121.2369   ZY=   150.8493
   XZ=   -12.8102   YZ=    85.1581   ZZ=   -33.6286
   Eigenvalues:   -99.6170    19.0580   220.9685
     23  H    Isotropic =    17.6591   Anisotropy =    14.2129
   XX=    21.6721   YX=     8.0945   ZX=     0.0127
   XY=     6.9636   YY=     7.2245   ZY=    -5.7606
   XZ=     2.2382   YZ=    -7.7144   ZZ=    24.0806
   Eigenvalues:     2.0071    23.8358    27.1343
     24  H    Isotropic =    21.2507   Anisotropy =    10.8461
   XX=    22.4404   YX=     2.9341   ZX=    -1.3737
   XY=     4.7648   YY=    17.1890   ZY=    -5.3033
   XZ=    -1.3251   YZ=    -4.9543   ZZ=    24.1227
   Eigenvalues:    13.5351    21.7357    28.4814
     25  H    Isotropic =    16.5424   Anisotropy =    15.2494
   XX=    22.5361   YX=     8.8726   ZX=     1.7771
   XY=     9.5894   YY=     5.4614   ZY=    -6.4708
   XZ=     2.9189   YZ=    -7.4402   ZZ=    21.6296
   Eigenvalues:    -0.9458    23.8643    26.7087
     26  C    Isotropic =    72.6665   Anisotropy =   274.3063
   XX=   227.2056   YX=    79.3269   ZX=    99.0392
   XY=    32.1816   YY=   -41.5444   ZY=   -20.3612
   XZ=    26.8923   YZ=    22.3390   ZZ=    32.3382
   Eigenvalues:   -54.3963    16.8584   255.5373
     27  C    Isotropic =   121.5127   Anisotropy =   396.5408
   XX=   368.6232   YX=   -23.9456   ZX=    -0.9784
   XY=  -134.1661   YY=    -6.0947   ZY=    11.4127
   XZ=   -30.1152   YZ=    55.5563   ZZ=     2.0096
   Eigenvalues:   -42.4797    21.1445   385.8732
     28  C    Isotropic =   103.2254   Anisotropy =   303.0167
   XX=   280.9625   YX=   -73.4790   ZX=    51.4655
   XY=   -86.6669   YY=    29.8283   ZY=    37.8472
   XZ=    -0.8179   YZ=    16.8854   ZZ=    -1.1147
   Eigenvalues:   -31.3621    35.8017   305.2365
     29  C    Isotropic =    -0.5605   Anisotropy =   122.2724
   XX=    68.7343   YX=   -13.6352   ZX=    52.0691
   XY=    13.2944   YY=    25.7439   ZY=   -13.9225
   XZ=    40.9580   YZ=    19.1706   ZZ=   -96.1596
   Eigenvalues:  -108.4249    25.7890    80.9545
     30  H    Isotropic =    22.4446   Anisotropy =    10.9552
   XX=    18.7135   YX=    -2.9046   ZX=    -2.7686
   XY=     4.5784   YY=    19.4471   ZY=     1.7710
   XZ=     6.1230   YZ=     1.5937   ZZ=    29.1733
   Eigenvalues:    18.1377    19.4481    29.7481
     31  C    Isotropic =   -23.6135   Anisotropy =    97.4167
   XX=    26.7922   YX=    13.3279   ZX=    11.2378
   XY=    14.4174   YY=  -118.9401   ZY=    24.9851
   XZ=    20.5314   YZ=   -15.6820   ZZ=    21.3075
   Eigenvalues:  -120.3194     8.1479    41.3310
     32  H    Isotropic =    23.2878   Anisotropy =    11.8797
   XX=    19.7730   YX=     1.6514   ZX=    -1.2177
   XY=     8.5726   YY=    28.2682   ZY=     4.5235
   XZ=     1.7766   YZ=     0.1799   ZZ=    21.8222
   Eigenvalues:    17.2418    21.4139    31.2076
     33  C    Isotropic =   -20.5169   Anisotropy =   190.6092
   XX=   104.3375   YX=    34.8671   ZX=    53.3293
   XY=   -37.1285   YY=   -84.2695   ZY=   -97.4661
   XZ=   -18.8115   YZ=   -87.4729   ZZ=   -81.6188
   Eigenvalues:  -175.8812     7.7746   106.5559
     34  H    Isotropic =    18.1527   Anisotropy =    14.0153
   XX=     6.6206   YX=     2.2135   ZX=     2.2885
   XY=     7.0136   YY=    24.1281   ZY=     1.9450
   XZ=     7.4096   YZ=     0.9109   ZZ=    23.7095
   Eigenvalues:     4.4727    22.4892    27.4962
     35  H    Isotropic =    16.1522   Anisotropy =    16.8297
   XX=     3.4427   YX=     6.9219   ZX=     2.1401
   XY=    14.0398   YY=    20.4028   ZY=     1.6719
   XZ=     2.9684   YZ=     0.9563   ZZ=    24.6112
   Eigenvalues:    -1.6750    22.7596    27.3720
     36  H    Isotropic =    15.1347   Anisotropy =    16.7341
   XX=    -2.6214   YX=     4.7634   ZX=     2.3001
   XY=    12.8173   YY=    23.6058   ZY=    -0.7998
   XZ=     4.4937   YZ=    -1.5360   ZZ=    24.4196
   Eigenvalues:    -5.7226    24.8358    26.2908
     37  C    Isotropic =    -7.1642   Anisotropy =    73.7354
   XX=    11.8304   YX=    78.3856   ZX=   -63.4949
   XY=    -4.7910   YY=   -33.0180   ZY=    23.4084
   XZ=     1.0361   YZ=    18.1437   ZZ=    -0.3051
   Eigenvalues:   -70.3016     6.8163    41.9927
     38  C    Isotropic =    14.0065   Anisotropy =   105.6817
   XX=    20.9830   YX=    42.9851   ZX=   -63.1770
   XY=     3.9962   YY=    48.6977   ZY=    -2.1037
   XZ=   -47.8045   YZ=   -39.8217   ZZ=   -27.6612
   Eigenvalues:   -64.1365    21.6950    84.4610
     39  C    Isotropic =    52.9576   Anisotropy =   164.9193
   XX=    74.1858   YX=    70.0427   ZX=   -33.4869
   XY=    39.6280   YY=    53.1641   ZY=   -62.6103
   XZ=   -18.1697   YZ=   -99.3118   ZZ=    31.5229
   Eigenvalues:   -42.2356    38.2045   162.9038
     40  C    Isotropic =    37.7700   Anisotropy =   175.6716
   XX=    64.2017   YX=    61.3275   ZX=   -12.7912
   XY=    66.1399   YY=    78.1812   ZY=   -86.8193
   XZ=     9.2577   YZ=   -63.9153   ZZ=   -29.0729
   Eigenvalues:   -74.2506    32.6763   154.8844
     41  H    Isotropic =    28.0371   Anisotropy =     8.2007
   XX=    30.3004   YX=    -4.1150   ZX=    -1.5669
   XY=    -0.1153   YY=    31.6653   ZY=     0.5477
   XZ=    -6.1508   YZ=    -2.1958   ZZ=    22.1458
   Eigenvalues:    20.3920    30.2151    33.5043
     42  C    Isotropic =    59.1859   Anisotropy =   197.4463
   XX=    35.0305   YX=    50.7280   ZX=   -84.7817
   XY=    44.1158   YY=   118.7789   ZY=   -50.7041
   XZ=   -77.1751   YZ=   -69.6884   ZZ=    23.7483
   Eigenvalues:   -52.7838    39.5248   190.8168
     43  H    Isotropic =    25.3020   Anisotropy =    16.8271
   XX=    33.3375   YX=    -8.6353   ZX=     1.3324
   XY=    -4.6627   YY=    21.9931   ZY=     4.9012
   XZ=     3.7502   YZ=    -0.2318   ZZ=    20.5753
   Eigenvalues:    16.4274    22.9585    36.5201
     44  C    Isotropic =    71.6026   Anisotropy =   266.7589
   XX=    -0.5268   YX=   109.5754   ZX=   -44.2900
   XY=   125.0665   YY=   137.4558   ZY=   -75.3967
   XZ=   -43.0219   YZ=   -76.8264   ZZ=    77.8787
   Eigenvalues:   -67.6385    33.0044   249.4419
     45  H    Isotropic =    24.1362   Anisotropy =    10.2024
   XX=    29.6647   YX=    -4.7524   ZX=     1.5238
   XY=    -2.8144   YY=    18.3390   ZY=     2.3749
   XZ=     0.6498   YZ=    -1.4255   ZZ=    24.4048
   Eigenvalues:    17.1095    24.3612    30.9377
     46  H    Isotropic =    23.0526   Anisotropy =     9.9495
   XX=    27.4645   YX=    -4.2200   ZX=     1.4765
   XY=    -4.4584   YY=    21.1964   ZY=     3.7741
   XZ=     1.8021   YZ=     3.2506   ZZ=    20.4969
   Eigenvalues:    15.7894    23.6828    29.6856
     47  H    Isotropic =    22.3014   Anisotropy =     7.3674
   XX=    25.7154   YX=    -3.2148   ZX=     1.9473
   XY=    -4.0940   YY=    17.5232   ZY=     5.0434
   XZ=     2.2528   YZ=     3.8410   ZZ=    23.6655
   Eigenvalues:    13.7155    25.9757    27.2130
     48  C    Isotropic =    64.9123   Anisotropy =   254.8216
   XX=    95.3068   YX=  -138.7935   ZX=    66.0239
   XY=   -95.6710   YY=    76.6146   ZY=   -49.8860
   XZ=    58.5375   YZ=   -55.0517   ZZ=    22.8155
   Eigenvalues:   -32.1541    -7.9023   234.7934
     49  C    Isotropic =    57.2720   Anisotropy =   214.4344
   XX=    85.3196   YX=   -82.8632   ZX=    70.5213
   XY=   -63.6433   YY=   102.3512   ZY=   -51.3052
   XZ=    71.7631   YZ=   -45.6560   ZZ=   -15.8549
   Eigenvalues:   -53.3651    24.9528   200.2282
     50  C    Isotropic =    59.5765   Anisotropy =   199.9933
   XX=    99.4706   YX=   -67.5714   ZX=    57.4217
   XY=   -82.6911   YY=    81.0763   ZY=   -74.0790
   XZ=    11.2492   YZ=   -64.2280   ZZ=    -1.8175
   Eigenvalues:   -41.5104    27.3346   192.9053
     51  C    Isotropic =     4.6656   Anisotropy =   104.4523
   XX=    28.5008   YX=   -28.0972   ZX=   -15.1769
   XY=   -53.8937   YY=     1.3942   ZY=   -79.9176
   XZ=   -10.0609   YZ=   -54.7495   ZZ=   -15.8981
   Eigenvalues:   -87.0530    26.7494    74.3005
     52  H    Isotropic =    24.7580   Anisotropy =    11.2494
   XX=    26.1248   YX=     3.9698   ZX=     0.8105
   XY=     4.8692   YY=    28.3805   ZY=     1.7658
   XZ=     1.0463   YZ=     2.7443   ZZ=    19.7689
   Eigenvalues:    19.2092    22.8073    32.2577
     53  C    Isotropic =    26.1273   Anisotropy =   153.1725
   XX=    24.0673   YX=   -45.6146   ZX=    79.2879
   XY=   -67.7666   YY=    80.8691   ZY=     1.0424
   XZ=    56.2049   YZ=   -12.8607   ZZ=   -26.5544
   Eigenvalues:   -78.8361    28.9756   128.2423
     54  H    Isotropic =    24.7854   Anisotropy =     8.6698
   XX=    26.9370   YX=     0.9575   ZX=    -3.6803
   XY=    -2.9569   YY=    24.7101   ZY=    -3.3665
   XZ=    -6.4843   YZ=    -3.4902   ZZ=    22.7093
   Eigenvalues:    17.6528    26.1382    30.5653
     55  C    Isotropic =    20.1910   Anisotropy =   238.9367
   XX=    12.6101   YX=  -155.0638   ZX=    53.8670
   XY=  -144.8436   YY=     4.4941   ZY=   -22.5285
   XZ=    43.2254   YZ=   -30.2875   ZZ=    43.4688
   Eigenvalues:  -142.7183    23.8092   179.4821
     56  H    Isotropic =    16.6752   Anisotropy =    15.3284
   XX=    11.3074   YX=    13.6273   ZX=    -7.5258
   XY=     8.1122   YY=    19.3138   ZY=     4.3897
   XZ=    -8.4394   YZ=     6.7444   ZZ=    19.4043
   Eigenvalues:    -0.9306    24.0620    26.8941
     57  H    Isotropic =    21.0195   Anisotropy =    11.6774
   XX=    15.5421   YX=     8.3864   ZX=    -4.2567
   XY=     3.7705   YY=    25.9762   ZY=     2.4874
   XZ=    -2.4319   YZ=     1.6218   ZZ=    21.5403
   Eigenvalues:    11.2687    22.9853    28.8045
     58  H    Isotropic =    15.5252   Anisotropy =    17.5665
   XX=     7.8252   YX=    16.1516   ZX=   -10.4718
   XY=     8.6876   YY=    17.1385   ZY=     7.3665
   XZ=    -7.4191   YZ=     7.6755   ZZ=    21.6118
   Eigenvalues:    -5.7395    25.0788    27.2362
     59  C    Isotropic =    32.1804   Anisotropy =   209.7504
   XX=    45.8944   YX=   106.8092   ZX=    61.9584
   XY=    68.6023   YY=   108.3191   ZY=    -3.2633
   XZ=    32.7203   YZ=   -14.7130   ZZ=   -57.6724
   Eigenvalues:   -86.5050    11.0321   172.0140
     60  C    Isotropic =    47.4515   Anisotropy =   203.9433
   XX=    80.5546   YX=    89.4823   ZX=   -12.8785
   XY=    92.1239   YY=    93.4266   ZY=    54.8011
   XZ=   -12.0354   YZ=    58.8083   ZZ=   -31.6269
   Eigenvalues:   -70.4727    29.4134   183.4137
     61  C    Isotropic =    14.5563   Anisotropy =   157.1624
   XX=   -18.3250   YX=   102.2025   ZX=    22.1396
   XY=   100.7596   YY=    34.6226   ZY=    19.0998
   XZ=    14.2312   YZ=    13.6281   ZZ=    27.3714
   Eigenvalues:   -96.8869    21.2247   119.3312
     62  C    Isotropic =    30.6362   Anisotropy =   159.0160
   XX=    13.3163   YX=    91.7471   ZX=    16.1514
   XY=   115.4339   YY=    45.9669   ZY=     2.3128
   XZ=    30.2727   YZ=    -3.0582   ZZ=    32.6254
   Eigenvalues:   -78.1429    33.4046   136.6469
     63  H    Isotropic =    24.9377   Anisotropy =    11.8299
   XX=    25.1899   YX=    -4.3930   ZX=    -6.4602
   XY=    -2.6981   YY=    23.9646   ZY=     2.7318
   XZ=    -4.4953   YZ=     1.8419   ZZ=    25.6585
   Eigenvalues:    19.6078    22.3810    32.8243
     64  C    Isotropic =    37.1189   Anisotropy =   187.4245
   XX=    53.6109   YX=    71.4736   ZX=   -30.4872
   XY=    87.2952   YY=   100.8795   ZY=    53.0972
   XZ=   -33.1909   YZ=    42.6697   ZZ=   -43.1336
   Eigenvalues:   -82.6974    31.9856   162.0686
     65  H    Isotropic =    23.6881   Anisotropy =    11.3584
   XX=    21.6406   YX=     1.0014   ZX=    -2.6253
   XY=     0.1814   YY=    19.0511   ZY=     2.2127
   XZ=    -2.4020   YZ=     1.4488   ZZ=    30.3727
   Eigenvalues:    18.4170    21.3870    31.2604
     66  C    Isotropic =    49.2006   Anisotropy =   278.2020
   XX=   102.4720   YX=   112.4447   ZX=    55.8324
   XY=   113.5757   YY=   134.3638   ZY=   -14.3672
   XZ=    57.3187   YZ=   -15.7964   ZZ=   -89.2342
   Eigenvalues:  -114.4431    27.3762   234.6685
     67  H    Isotropic =    19.8950   Anisotropy =    11.3224
   XX=    16.5973   YX=    -9.9028   ZX=    -2.1784
   XY=    -6.9907   YY=    16.1669   ZY=     0.0672
   XZ=    -0.3228   YZ=     0.6514   ZZ=    26.9206
   Eigenvalues:     7.9126    24.3291    27.4432
     68  H    Isotropic =    22.0543   Anisotropy =    10.9598
   XX=    21.5654   YX=    -4.9620   ZX=    -2.9549
   XY=    -5.4882   YY=    18.6796   ZY=     2.8489
   XZ=    -1.7659   YZ=     2.8378   ZZ=    25.9180
   Eigenvalues:    14.6332    22.1690    29.3608
     69  H    Isotropic =    19.6501   Anisotropy =    11.7271
   XX=    17.8884   YX=   -11.1957   ZX=    -1.4663
   XY=    -9.2381   YY=    16.5627   ZY=    -0.9849
   XZ=     0.8377   YZ=    -0.0148   ZZ=    24.4993
   Eigenvalues:     6.9680    24.5142    27.4682
     70  C    Isotropic =    47.4627   Anisotropy =   199.1284
   XX=   128.2001   YX=    32.1978   ZX=   -67.5206
   XY=    41.0804   YY=     6.4134   ZY=    13.6675
   XZ=  -109.2037   YZ=    -4.1615   ZZ=     7.7748
   Eigenvalues:   -47.9799    10.1531   180.2150
     71  C    Isotropic =    67.2611   Anisotropy =   237.7437
   XX=   169.1751   YX=     2.3680   ZX=   -95.7226
   XY=     7.4248   YY=    -1.0337   ZY=   -45.8381
   XZ=  -106.6041   YZ=   -37.5531   ZZ=    33.6419
   Eigenvalues:   -47.2895    23.3159   225.7569
     72  C    Isotropic =    19.4558   Anisotropy =   130.9838
   XX=    88.3785   YX=    10.7316   ZX=   -34.1092
   XY=    23.7108   YY=   -76.7297   ZY=    -0.5796
   XZ=   -29.3794   YZ=     0.4694   ZZ=    46.7187
   Eigenvalues:   -78.5928    30.1819   106.7784
     73  C    Isotropic =    36.9463   Anisotropy =   152.6061
   XX=   115.2050   YX=     0.7622   ZX=   -34.4272
   XY=    26.1187   YY=   -58.7711   ZY=    -2.4643
   XZ=   -54.2469   YZ=    32.7446   ZZ=    54.4048
   Eigenvalues:   -62.9968    35.1519   138.6837
     74  H    Isotropic =    25.4470   Anisotropy =    14.2216
   XX=    25.0488   YX=    -3.4960   ZX=     0.3699
   XY=    -6.9811   YY=    29.3702   ZY=    -4.4938
   XZ=     2.9615   YZ=    -5.6354   ZZ=    21.9221
   Eigenvalues:    19.1453    22.2676    34.9281
     75  C    Isotropic =    34.8900   Anisotropy =   187.3836
   XX=   120.7362   YX=   -11.3886   ZX=   -69.3391
   XY=    -9.8476   YY=    -7.7826   ZY=   -56.1031
   XZ=   -89.0853   YZ=   -57.3482   ZZ=    -8.2836
   Eigenvalues:   -86.1216    30.9792   159.8124
     76  H    Isotropic =    23.0825   Anisotropy =    13.6009
   XX=    21.4690   YX=    -2.8197   ZX=     3.9686
   XY=     1.2118   YY=    18.0105   ZY=    -4.2479
   XZ=     3.5952   YZ=    -2.8452   ZZ=    29.7681
   Eigenvalues:    17.0066    20.0912    32.1498
     77  C    Isotropic =    53.5842   Anisotropy =   263.4475
   XX=   164.2222   YX=    25.9149   ZX=   -98.4046
   XY=    46.3851   YY=    16.7870   ZY=    13.7997
   XZ=  -150.6845   YZ=    33.5404   ZZ=   -20.2567
   Eigenvalues:   -95.6093    27.1460   229.2158
     78  H    Isotropic =    22.4032   Anisotropy =     8.9657
   XX=    18.7096   YX=    -2.4480   ZX=     5.3487
   XY=    -3.2641   YY=    24.5941   ZY=    -0.6474
   XZ=     5.4083   YZ=    -0.3541   ZZ=    23.9059
   Eigenvalues:    14.8439    23.9854    28.3804
     79  H    Isotropic =    22.6867   Anisotropy =    11.0039
[...]
 Alpha virt. eigenvalues --    2.11639   2.11962   2.12082   2.12617   2.12815
 Alpha virt. eigenvalues --    2.13062   2.13394   2.13671   2.13898   2.14189
 Alpha virt. eigenvalues --    2.14657   2.15053   2.15339   2.15582   2.16128
 Alpha virt. eigenvalues --    2.16392   2.16501   2.16687   2.16880   2.17286
 Alpha virt. eigenvalues --    2.17384   2.17720   2.18165   2.18249   2.18602
 Alpha virt. eigenvalues --    2.19110   2.19397   2.19727   2.19898   2.20056
 Alpha virt. eigenvalues --    2.20167   2.20482   2.20745   2.21031   2.21265
 Alpha virt. eigenvalues --    2.21414   2.21764   2.22100   2.22322   2.22394
 Alpha virt. eigenvalues --    2.22918   2.23136   2.23513   2.23877   2.23909
 Alpha virt. eigenvalues --    2.24225   2.24405   2.24781   2.25118   2.25475
 Alpha virt. eigenvalues --    2.26002   2.26280   2.26857   2.26956   2.27330
 Alpha virt. eigenvalues --    2.27562   2.28309   2.28431   2.28771   2.29508
 Alpha virt. eigenvalues --    2.29694   2.30187   2.30462   2.30913   2.31143
 Alpha virt. eigenvalues --    2.31730   2.32180   2.32543   2.32726   2.33008
 Alpha virt. eigenvalues --    2.33665   2.33856   2.34295   2.34624   2.35106
 Alpha virt. eigenvalues --    2.35449   2.36042   2.36110   2.36294   2.36651
 Alpha virt. eigenvalues --    2.37050   2.37324   2.37848   2.38462   2.38541
 Alpha virt. eigenvalues --    2.38899   2.39092   2.39340   2.40040   2.40115
 Alpha virt. eigenvalues --    2.40345   2.40401   2.40601   2.41002   2.41564
 Alpha virt. eigenvalues --    2.41828   2.41943   2.42439   2.42703   2.43151
 Alpha virt. eigenvalues --    2.43658   2.43831   2.43958   2.44367   2.44532
 Alpha virt. eigenvalues --    2.44787   2.45247   2.45740   2.45907   2.46413
 Alpha virt. eigenvalues --    2.46794   2.46949   2.47445   2.48285   2.48373
 Alpha virt. eigenvalues --    2.48608   2.49142   2.49726   2.50246   2.50325
 Alpha virt. eigenvalues --    2.50817   2.51150   2.51816   2.52068   2.52318
 Alpha virt. eigenvalues --    2.52564   2.53188   2.53494   2.53831   2.54376
 Alpha virt. eigenvalues --    2.54750   2.55091   2.55388   2.55832   2.56060
 Alpha virt. eigenvalues --    2.56474   2.57238   2.57681   2.57769   2.58417
 Alpha virt. eigenvalues --    2.58516   2.59319   2.59526   2.59858   2.60004
 Alpha virt. eigenvalues --    2.60544   2.60885   2.61398   2.61622   2.61811
 Alpha virt. eigenvalues --    2.62238   2.62429   2.62913   2.63154   2.63686
 Alpha virt. eigenvalues --    2.63803   2.64083   2.64917   2.65048   2.65635
 Alpha virt. eigenvalues --    2.66043   2.66335   2.67065   2.67179   2.67405
 Alpha virt. eigenvalues --    2.67637   2.67901   2.68287   2.68500   2.69269
 Alpha virt. eigenvalues --    2.69614   2.69673   2.69812   2.70157   2.70398
 Alpha virt. eigenvalues --    2.70984   2.71104   2.71463   2.72139   2.72327
 Alpha virt. eigenvalues --    2.72796   2.72876   2.73474   2.73801   2.74017
 Alpha virt. eigenvalues --    2.74303   2.74615   2.74765   2.75112   2.75681
 Alpha virt. eigenvalues --    2.75953   2.76195   2.76448   2.76508   2.76638
 Alpha virt. eigenvalues --    2.76993   2.77212   2.77716   2.77735   2.78239
 Alpha virt. eigenvalues --    2.78373   2.78695   2.79171   2.79520   2.79887
 Alpha virt. eigenvalues --    2.80098   2.80225   2.80777   2.81435   2.82233
 Alpha virt. eigenvalues --    2.82468   2.82616   2.83230   2.83270   2.83868
 Alpha virt. eigenvalues --    2.84105   2.84961   2.85261   2.86279   2.86815
 Alpha virt. eigenvalues --    2.87368   2.88112   2.88280   2.88836   2.88943
 Alpha virt. eigenvalues --    2.89540   2.89881   2.90397   2.90669   2.91378
 Alpha virt. eigenvalues --    2.91437   2.91948   2.92328   2.92846   2.93619
 Alpha virt. eigenvalues --    2.94186   2.94606   2.94684   2.94752   2.94901
 Alpha virt. eigenvalues --    2.95498   2.95656   2.95962   2.96527   2.96720
 Alpha virt. eigenvalues --    2.96996   2.97220   2.97473   2.97728   2.97983
 Alpha virt. eigenvalues --    2.98484   2.98783   2.99047   2.99532   2.99637
 Alpha virt. eigenvalues --    2.99801   3.00290   3.00433   3.00720   3.00866
 Alpha virt. eigenvalues --    3.01375   3.01706   3.02314   3.03028   3.03362
 Alpha virt. eigenvalues --    3.03494   3.03842   3.04022   3.04399   3.05091
 Alpha virt. eigenvalues --    3.05568   3.06791   3.07649   3.08599   3.08827
 Alpha virt. eigenvalues --    3.09125   3.10137   3.11032   3.11187   3.12249
 Alpha virt. eigenvalues --    3.13757   3.14057   3.14389   3.14848   3.15423
 Alpha virt. eigenvalues --    3.15614   3.15802   3.16263   3.16627   3.17200
 Alpha virt. eigenvalues --    3.17534   3.18331   3.18473   3.19048   3.19190
 Alpha virt. eigenvalues --    3.19413   3.19806   3.20074   3.20517   3.21615
 Alpha virt. eigenvalues --    3.22563   3.23130   3.23472   3.24332   3.25015
 Alpha virt. eigenvalues --    3.25311   3.25416   3.26404   3.27031   3.27327
 Alpha virt. eigenvalues --    3.28610   3.29030   3.29879   3.29993   3.30808
 Alpha virt. eigenvalues --    3.31188   3.33282   3.34238   3.36221   3.37331
 Alpha virt. eigenvalues --    3.37667   3.38832   3.39739   3.41256   3.42562
 Alpha virt. eigenvalues --    3.43598   3.44177   3.46344   3.47273   3.48023
 Alpha virt. eigenvalues --    3.48248   3.49208   3.49557   3.50337   3.50910
 Alpha virt. eigenvalues --    3.51248   3.51493   3.52423   3.53022   3.53787
 Alpha virt. eigenvalues --    3.55089   3.55378   3.55744   3.56198   3.57033
 Alpha virt. eigenvalues --    3.60323   3.64669   3.75976   3.79466   3.81172
 Alpha virt. eigenvalues --    3.84371   3.98714   4.04712   4.06808   4.09602
 Alpha virt. eigenvalues --    4.11857   4.13813   4.17373   4.18994   4.20509
 Alpha virt. eigenvalues --    4.21036   4.21941   4.22773   4.23633   4.24805
 Alpha virt. eigenvalues --    4.25779   4.26301   4.29558   4.29872   4.30260
 Alpha virt. eigenvalues --    4.32014   4.32670   4.32882   4.33387   4.34473
 Alpha virt. eigenvalues --    4.35576   4.35733   4.36218   4.37459   4.38861
 Alpha virt. eigenvalues --    4.39275   4.40379   4.41405   4.42901   4.43301
 Alpha virt. eigenvalues --    4.44414   4.45720   4.46531   4.46854   4.47831
 Alpha virt. eigenvalues --    4.48434   4.49032   4.50038   4.50233   4.51280
 Alpha virt. eigenvalues --    4.53134   4.54896   4.56740   4.57174   4.57673
 Alpha virt. eigenvalues --    4.58523   4.60186   4.65772   4.73563   4.79090
 Alpha virt. eigenvalues --    4.79216   4.79301   4.80139   4.80420   4.80960
 Alpha virt. eigenvalues --    4.81521   4.82837   4.85864   5.83254   5.91474
 Alpha virt. eigenvalues --    5.92500   6.00265   6.18660   6.28561   6.64123
 Alpha virt. eigenvalues --    6.65114   6.66252   6.67075   6.67310   6.68789
 Alpha virt. eigenvalues --    6.69296   6.70538   6.80139   6.80772   6.81111
 Alpha virt. eigenvalues --    6.81914   6.83570   6.84700   6.85433   6.86315
 Alpha virt. eigenvalues --    6.87389   6.87923   6.92064   6.93544   6.94744
 Alpha virt. eigenvalues --    6.95816   6.96547   6.97512   6.98580   7.00854
 Alpha virt. eigenvalues --    7.01115   7.02865   7.03547   7.04733   7.06828
 Alpha virt. eigenvalues --    7.08367   7.09199   7.10878   7.11716   7.13691
 Alpha virt. eigenvalues --    7.14717   7.15552   7.16035   7.17255   7.18727
 Alpha virt. eigenvalues --    7.25455   7.26591   7.27003   7.28036   7.29560
 Alpha virt. eigenvalues --    7.29841   7.31559   7.32952   7.36531   7.79379
 Alpha virt. eigenvalues --    7.81508   7.83261   7.86459   7.89237   7.89914
 Alpha virt. eigenvalues --    8.50772   8.51157   8.51956   8.52609   8.53509
 Alpha virt. eigenvalues --    8.55807   8.56386   8.61147   8.71306   9.20228
 Alpha virt. eigenvalues --    9.95206  10.03187  10.05694  10.12853  10.14936
 Alpha virt. eigenvalues --   10.17076  10.19514  10.37173  14.27207  14.30770
 Alpha virt. eigenvalues --   15.95343  16.92780  17.04562  17.04657  17.04985
 Alpha virt. eigenvalues --   17.05102  17.06097  17.06531  17.06990  17.07199
 Alpha virt. eigenvalues --   17.07806  17.08302  17.09052  17.09285  17.09827
 Alpha virt. eigenvalues --   17.10343  17.11261  17.11874  17.12861  17.15204
 Alpha virt. eigenvalues --   17.16565  17.16994  17.17785  17.19001  17.19682
 Alpha virt. eigenvalues --   17.20173  17.21174  17.21776  17.24058  17.25235
 Alpha virt. eigenvalues --   17.27935  17.28716  17.29646  17.29974  17.30631
 Alpha virt. eigenvalues --   17.31353  17.31618  17.32494  17.33477  17.34209
 Alpha virt. eigenvalues --   17.34566  17.34924  17.35110  17.35415  17.35930
 Alpha virt. eigenvalues --   17.36485  17.36806  17.38575  17.39916  17.40465
 Alpha virt. eigenvalues --   17.42854  17.43792  17.45086  17.45911  17.48340
 Alpha virt. eigenvalues --   17.52462  21.18270  21.38464  21.46956  25.74576
 Alpha virt. eigenvalues --   25.82510  25.84067  26.35713  31.82833  31.85050
 Alpha virt. eigenvalues --   31.87421  31.90368  31.92947  43.04503  43.07737
 Alpha virt. eigenvalues --   43.10236  43.12250  43.23807  61.96792  61.99889
 Alpha virt. eigenvalues --   63.30084  78.24041  82.38444  86.27086  86.43758
 Alpha virt. eigenvalues --   86.50253  89.27343  89.30469  89.31362  89.31765
 Alpha virt. eigenvalues --   89.32439  89.32585  89.33132  89.33515  89.34128
 Alpha virt. eigenvalues --   89.35124  89.35297  89.35783  89.36668  89.36858
 Alpha virt. eigenvalues --   89.37670  89.38293  89.39429  89.41536  89.42059
 Alpha virt. eigenvalues --   89.42225  89.44161  89.44810  89.45021  89.45789
 Alpha virt. eigenvalues --   89.46956  89.47960  89.49672  89.51798  89.53757
 Alpha virt. eigenvalues --   89.55099  89.55518  89.56090  89.56533  89.57519
 Alpha virt. eigenvalues --   89.57980  89.58223  89.59793  89.60893  89.62114
 Alpha virt. eigenvalues --   89.62841  89.62932  89.63251  89.63813  89.64330
 Alpha virt. eigenvalues --   89.64360  89.65312  89.66581  89.67567  89.68724
 Alpha virt. eigenvalues --   89.70737  89.71286  89.72183  89.74178  89.77371
 Alpha virt. eigenvalues --  122.03645 122.09308 122.10676 239.45357 257.47942
 Alpha virt. eigenvalues --  332.30469 332.33671 428.84716 428.97749 429.02919
 Alpha virt. eigenvalues --  431.86431 590.37639 590.41981 590.43022 773.14138
 Alpha virt. eigenvalues --  839.830522068.729352530.187675495.51928**********
 Alpha virt. eigenvalues -- ********************
          Condensed to atoms (all electrons):
 Mulliken charges:
               1
     1  Pt   0.233459
     2  C    0.023963
     3  C   -0.106807
     4  C    0.004384
     5  C    0.048981
     6  H    0.028289
     7  C    0.019367
     8  H    0.026182
     9  C   -0.549072
    10  H    0.112875
    11  H    0.116251
    12  H    0.132721
    13  P    1.267226
    14  P    1.004951
    15  C   -1.229350
    16  C    0.464730
    17  C    0.477698
    18  C    0.029109
    19  H    0.090734
    20  C   -0.201006
    21  H    0.054266
    22  C   -0.635468
    23  H    0.140538
    24  H    0.133015
    25  H    0.152828
    26  C   -0.907289
    27  C    0.652191
    28  C    0.112534
    29  C    0.020141
    30  H    0.041484
    31  C   -0.160669
    32  H    0.089015
    33  C   -0.454058
    34  H    0.125688
    35  H    0.131135
    36  H    0.146751
    37  C   -1.103019
    38  C    0.499022
    39  C    0.288122
    40  C   -0.030427
    41  H    0.052448
    42  C   -0.178073
    43  H    0.074796
    44  C   -0.464606
    45  H    0.126643
    46  H    0.136039
    47  H    0.146977
    48  C   -1.130328
    49  C    0.298197
    50  C    0.566195
    51  C   -0.142122
    52  H    0.082450
    53  C   -0.024560
    54  H    0.069845
    55  C   -0.512968
    56  H    0.138107
    57  H    0.124306
    58  H    0.141163
    59  C   -0.740801
    60  C    0.317890
    61  C    0.464723
    62  C   -0.156818
    63  H    0.059505
    64  C   -0.043490
    65  H    0.057679
    66  C   -0.586798
    67  H    0.132430
    68  H    0.138479
    69  H    0.146641
    70  C   -0.851053
    71  C    0.293997
    72  C    0.279981
    73  C    0.080465
    74  H    0.092652
    75  C   -0.249947
    76  H    0.064303
    77  C   -0.584690
    78  H    0.144520
    79  H    0.125342
    80  H    0.150033
    81  Sn   0.380504
    82  C   -0.053825
    83  C    0.067434
    84  C   -0.009984
    85  C   -0.114946
    86  H    0.112145
    87  C   -0.050973
    88  H    0.086986
    89  C   -0.552609
    90  H    0.147457
    91  H    0.144541
    92  H    0.151600
    93  C   -0.047828
    94  C    0.063405
    95  C   -0.083450
    96  C   -0.219953
    97  H    0.130320
    98  C    0.000534
    99  H    0.107430
   100  C   -0.574103
   101  H    0.156337
   102  H    0.149321
   103  H    0.158679
   104  Cl  -0.279055
 Sum of Mulliken charges =   0.00000
 Mulliken charges with hydrogens summed into heavy atoms:
               1
     1  Pt   0.233459
     2  C    0.023963
     3  C   -0.078519
     4  C    0.030566
     5  C    0.161856
     7  C    0.135618
     9  C   -0.416351
    13  P    1.267226
    14  P    1.004951
    15  C   -1.229350
    16  C    0.555464
    17  C    0.531964
    18  C    0.169647
    20  C   -0.067991
    22  C   -0.482641
    26  C   -0.907289
    27  C    0.693676
    28  C    0.201549
    29  C    0.145829
    31  C   -0.029534
    33  C   -0.307307
    37  C   -1.103019
    38  C    0.551470
    39  C    0.362918
    40  C    0.096216
    42  C   -0.042034
    44  C   -0.317629
    48  C   -1.130328
    49  C    0.380647
    50  C    0.636040
    51  C   -0.004015
    53  C    0.099746
    55  C   -0.371805
    59  C   -0.740801
    60  C    0.377395
    61  C    0.522402
    62  C   -0.024387
    64  C    0.094988
    66  C   -0.440157
    70  C   -0.851053
    71  C    0.386649
    72  C    0.344283
    73  C    0.224985
    75  C   -0.124604
    77  C   -0.434657
    81  Sn   0.380504
    82  C   -0.053825
    83  C    0.179579
    84  C    0.077001
    85  C    0.032511
    87  C    0.093568
    89  C   -0.401010
    93  C   -0.047828
    94  C    0.193725
    95  C    0.023979
    96  C   -0.063616
    98  C    0.149855
   100  C   -0.415424
   104  Cl  -0.279055
 Electronic spatial extent (au):  <R**2>=          38904.8223
 Charge=              0.0000 electrons
 Dipole moment (field-independent basis, Debye):
    X=            -11.1458    Y=              1.3330    Z=             -3.0755  Tot=             11.6389
 Quadrupole moment (field-independent basis, Debye-Ang):
   XX=           -394.4390   YY=           -371.3390   ZZ=           -365.0057
   XY=             -0.1960   XZ=            -12.7690   YZ=             -2.4055
 Traceless Quadrupole moment (field-independent basis, Debye-Ang):
   XX=            -17.5111   YY=              5.5889   ZZ=             11.9222
   XY=             -0.1960   XZ=            -12.7690   YZ=             -2.4055
 Octapole moment (field-independent basis, Debye-Ang**2):
  XXX=            -56.6428  YYY=            -43.3835  ZZZ=             -1.5172  XYY=            -23.8219
  XXY=             54.7292  XXZ=            -58.1358  XZZ=            -62.7366  YZZ=            -51.6321
  YYZ=            -10.3666  XYZ=            -20.2980
 Hexadecapole moment (field-independent basis, Debye-Ang**3):
 XXXX=         -23958.1399 YYYY=         -17898.5466 ZZZZ=          -9541.5946 XXXY=             51.3252
 XXXZ=           -182.9425 YYYX=              7.3130 YYYZ=            178.3261 ZZZX=            -58.9281
 ZZZY=            -24.1294 XXYY=          -6472.6587 XXZZ=          -5427.2877 YYZZ=          -4466.6172
 XXYZ=           -239.6317 YYXZ=             30.6188 ZZXY=            -23.5923
 N-N= 1.542001820982D+04 E-N=-9.305455316023D+04  KE= 2.590831185967D+04
 Leave Link  601 at Wed Nov 20 05:22:29 2019, MaxMem=   939524096 cpu:        15.9
 (Enter /scr/programas/g09/l9999.exe)
 1\1\GINC-NQTCM\SP\RPBEPBE\Gen\C54H45Cl1P2Pt1Sn1\NQTCM\20-Nov-2019\0\\#
 PBEPBE/gen scf=(maxcycle=500,conver=3) NMR=GIAO Scrf=(solvent=Dichloro
 methane)\\estrutura 84\\0,1\Pt,0,0.088464,-0.264832,0.142223\C,0,-0.51
 9516,-2.205129,0.607226\C,0,-0.596819,-3.275882,-0.304357\C,0,-0.83892
 5,-2.490043,1.95148\C,0,-0.946419,-4.567952,0.105061\H,0,-0.38648,-3.1
 10363,-1.363425\C,0,-1.196834,-3.778705,2.367732\H,0,-0.795894,-1.6927
 55,2.70023\C,0,-1.247588,-4.829325,1.445541\H,0,-0.990033,-5.374487,-0
 .63317\H,0,-1.433208,-3.961063,3.420705\H,0,-1.525041,-5.836956,1.7664
 92\P,0,2.392245,-1.182147,0.168412\P,0,0.558081,2.11422,-0.14023\C,0,2
 .741418,-1.968467,-1.469891\C,0,3.980381,-2.585768,-1.723688\C,0,1.792
 766,-1.898759,-2.502185\C,0,4.249274,-3.148173,-2.974127\H,0,4.747149,
 -2.622569,-0.946346\C,0,2.066607,-2.457277,-3.757284\H,0,0.842271,-1.3
 92468,-2.32446\C,0,3.289203,-3.087521,-3.992006\H,0,5.21316,-3.62899,-
 3.154983\H,0,1.317588,-2.393051,-4.550967\H,0,3.502829,-3.525167,-4.97
 1341\C,0,2.597409,-2.508378,1.440225\C,0,2.428893,-2.154417,2.792592\C
 ,0,2.87627,-3.847199,1.126058\C,0,2.578769,-3.104392,3.804598\H,0,2.17
 0853,-1.128388,3.064712\C,0,3.008862,-4.802214,2.140711\H,0,2.983054,-
 4.160637,0.086963\C,0,2.871454,-4.433276,3.481512\H,0,2.453461,-2.8062
 95,4.84897\H,0,3.221692,-5.840837,1.87597\H,0,2.981337,-5.180554,4.271
 459\C,0,3.943173,-0.17332,0.366805\C,0,4.281553,0.711371,-0.673429\C,0
 ,4.798063,-0.259109,1.480311\C,0,5.436933,1.489609,-0.601687\H,0,3.643
 938,0.78436,-1.555991\C,0,5.953637,0.524487,1.549866\H,0,4.577771,-0.9
 47105,2.296134\C,0,6.279594,1.402446,0.512841\H,0,5.680996,2.168845,-1
 .423765\H,0,6.60854,0.439488,2.422281\H,0,7.184925,2.010382,0.568772\C
 ,0,-0.858629,3.316298,-0.100058\C,0,-1.165213,4.177253,-1.164073\C,0,-
 1.61799,3.39577,1.079594\C,0,-2.207007,5.103834,-1.046353\H,0,-0.59528
 2,4.131269,-2.092422\C,0,-2.653916,4.324338,1.197088\H,0,-1.399118,2.7
 31608,1.919101\C,0,-2.950725,5.183184,0.133005\H,0,-2.434457,5.76701,-
 1.885232\H,0,-3.235239,4.370809,2.120885\H,0,-3.762791,5.909131,0.2236
 31\C,0,1.396023,2.521329,-1.738271\C,0,2.49595,3.385819,-1.860218\C,0,
 0.877793,1.91432,-2.897209\C,0,3.063204,3.637974,-3.114333\H,0,2.93043
 3,3.857527,-0.979225\C,0,1.443116,2.172827,-4.149153\H,0,0.014312,1.24
 9469,-2.823139\C,0,2.53976,3.034572,-4.260602\H,0,3.921413,4.310567,-3
 .190677\H,0,1.025556,1.696738,-5.039341\H,0,2.984897,3.2331,-5.238801\
 C,0,1.571834,2.854063,1.224573\C,0,1.814096,4.240098,1.29181\C,0,2.020
 981,2.043163,2.276388\C,0,2.520613,4.78658,2.364984\H,0,1.432196,4.904
 494,0.514031\C,0,2.718116,2.591297,3.358875\H,0,1.804031,0.975057,2.25
 3058\C,0,2.976542,3.962633,3.401406\H,0,2.704981,5.863036,2.398762\H,0
 ,3.055194,1.942009,4.170737\H,0,3.521541,4.393519,4.245106\Sn,0,-2.510
 261,-0.121585,-0.337059\C,0,-3.913746,0.738163,1.116637\C,0,-5.117177,
 1.319958,0.683199\C,0,-3.660168,0.67676,2.497253\C,0,-6.040903,1.82931
 7,1.603319\H,0,-5.337656,1.391813,-0.386359\C,0,-4.583924,1.180497,3.4
 21907\H,0,-2.729706,0.23548,2.869858\C,0,-5.776108,1.759419,2.975919\H
 ,0,-6.970456,2.282807,1.247192\H,0,-4.37036,1.121837,4.493509\H,0,-6.4
 97682,2.155559,3.695132\C,0,-3.652336,-1.849904,-1.065486\C,0,-3.83312
 ,-2.103781,-2.435386\C,0,-4.250225,-2.725124,-0.142238\C,0,-4.58215,-3
 .204686,-2.871504\H,0,-3.401086,-1.424161,-3.174956\C,0,-5.00116,-3.82
 5408,-0.573068\H,0,-4.133336,-2.559066,0.933088\C,0,-5.167528,-4.06950
 2,-1.940946\H,0,-4.713212,-3.3841,-3.942829\H,0,-5.457816,-4.494163,0.
 16241\H,0,-5.754178,-4.928225,-2.279615\Cl,0,-2.920476,1.275207,-2.348
 295\\Version=EM64L-G09RevD.01\State=1-A\HF=-26316.8780904\RMSD=3.735e-
 04\Dipole=4.3850778,0.5244481,1.2099983\Quadrupole=-13.0190622,4.15520
 86,8.8638536,0.1457025,-9.4934739,1.7884306\PG=C01 [X(C54H45Cl1P2Pt1Sn
 1)]\\@


 A SCIENTIST IS SOMEONE WHOSE CURIOSITY SURVIVES
 EDUCATION'S ASSAULTS ON IT.
                          - SIR HERMANN BONDI
 Job cpu time:       2 days 22 hours  3 minutes 37.1 seconds.
 File lengths (MBytes):  RWF=   3370 Int=      0 D2E=      0 Chk=    239 Scr=      1
 Normal termination of Gaussian 09 at Wed Nov 20 05:22:30 2019.
