 Entering Gaussian System, Link 0=g09
 Input=/home/nqtcm/diego/estrutura61.com
 Output=/home/nqtcm/diego/estrutura61.log
 Initial command:
 /scr/programas/g09/l1.exe "/scr/nqtcm/Gau-1479.inp" -scrdir="/scr/nqtcm/"
 Entering Link 1 = /scr/programas/g09/l1.exe PID=      1481.
  
 Copyright (c) 1988,1990,1992,1993,1995,1998,2003,2009,2013,
            Gaussian, Inc.  All Rights Reserved.
  
 This is part of the Gaussian(R) 09 program.  It is based on
 the Gaussian(R) 03 system (copyright 2003, Gaussian, Inc.),
 the Gaussian(R) 98 system (copyright 1998, Gaussian, Inc.),
 the Gaussian(R) 94 system (copyright 1995, Gaussian, Inc.),
 the Gaussian 92(TM) system (copyright 1992, Gaussian, Inc.),
 the Gaussian 90(TM) system (copyright 1990, Gaussian, Inc.),
 the Gaussian 88(TM) system (copyright 1988, Gaussian, Inc.),
 the Gaussian 86(TM) system (copyright 1986, Carnegie Mellon
 University), and the Gaussian 82(TM) system (copyright 1983,
 Carnegie Mellon University). Gaussian is a federally registered
 trademark of Gaussian, Inc.
  
 This software contains proprietary and confidential information,
 including trade secrets, belonging to Gaussian, Inc.
  
 This software is provided under written license and may be
 used, copied, transmitted, or stored only in accord with that
 written license.
  
 The following legend is applicable only to US Government
 contracts under FAR:
  
                    RESTRICTED RIGHTS LEGEND
  
 Use, reproduction and disclosure by the US Government is
 subject to restrictions as set forth in subparagraphs (a)
 and (c) of the Commercial Computer Software - Restricted
 Rights clause in FAR 52.227-19.
  
 Gaussian, Inc.
 340 Quinnipiac St., Bldg. 40, Wallingford CT 06492
  
  
 ---------------------------------------------------------------
 Warning -- This program may not be used in any manner that
 competes with the business of Gaussian, Inc. or will provide
 assistance to any competitor of Gaussian, Inc.  The licensee
 of this program is prohibited from giving any competitor of
 Gaussian, Inc. access to this program.  By using this program,
 the user acknowledges that Gaussian, Inc. is engaged in the
 business of creating and licensing software in the field of
 computational chemistry and represents and warrants to the
 licensee that it is not a competitor of Gaussian, Inc. and that
 it will not use this program in any manner prohibited above.
 ---------------------------------------------------------------
  

 Cite this work as:
 Gaussian 09, Revision D.01,
 M. J. Frisch, G. W. Trucks, H. B. Schlegel, G. E. Scuseria, 
 M. A. Robb, J. R. Cheeseman, G. Scalmani, V. Barone, B. Mennucci, 
 G. A. Petersson, H. Nakatsuji, M. Caricato, X. Li, H. P. Hratchian, 
 A. F. Izmaylov, J. Bloino, G. Zheng, J. L. Sonnenberg, M. Hada, 
 M. Ehara, K. Toyota, R. Fukuda, J. Hasegawa, M. Ishida, T. Nakajima, 
 Y. Honda, O. Kitao, H. Nakai, T. Vreven, J. A. Montgomery, Jr., 
 J. E. Peralta, F. Ogliaro, M. Bearpark, J. J. Heyd, E. Brothers, 
 K. N. Kudin, V. N. Staroverov, T. Keith, R. Kobayashi, J. Normand, 
 K. Raghavachari, A. Rendell, J. C. Burant, S. S. Iyengar, J. Tomasi, 
 M. Cossi, N. Rega, J. M. Millam, M. Klene, J. E. Knox, J. B. Cross, 
 V. Bakken, C. Adamo, J. Jaramillo, R. Gomperts, R. E. Stratmann, 
 O. Yazyev, A. J. Austin, R. Cammi, C. Pomelli, J. W. Ochterski, 
 R. L. Martin, K. Morokuma, V. G. Zakrzewski, G. A. Voth, 
 P. Salvador, J. J. Dannenberg, S. Dapprich, A. D. Daniels, 
 O. Farkas, J. B. Foresman, J. V. Ortiz, J. Cioslowski, 
 and D. J. Fox, Gaussian, Inc., Wallingford CT, 2013.
 
 ******************************************
 Gaussian 09:  EM64L-G09RevD.01 24-Apr-2013
                24-Aug-2019 
 ******************************************
 %mem=7Gb
 %nproc=4
 Will use up to    4 processors via shared memory.
 ----------------------------------------------------------------------
 #PBEPBE/gen scf=(maxcycle=500,conver=4) NMR=GIAO Scrf=(solvent=Dichlor
 omethane)
 ----------------------------------------------------------------------
 1/38=1/1;
 2/12=2,17=6,18=5,40=1/2;
 3/5=7,11=2,16=1,25=1,30=1,70=2201,72=9,74=1009/1,2,8,3;
 4//1;
 5/5=2,6=4,7=500,38=5,53=9/2;
 8/6=1,10=90,11=11/1;
 10/13=100,45=16/2;
 6/7=2,8=2,9=2,10=2,28=1/1;
 99/9=1/99;
 Leave Link    1 at Sat Aug 24 07:24:17 2019, MaxMem=   939524096 cpu:         0.2
 (Enter /scr/programas/g09/l101.exe)
 ------------
 estrutura 61
 ------------
 Symbolic Z-matrix:
 Charge =  0 Multiplicity = 1
 P                    -2.30061  -0.5445    0.20679 
 P                     2.35702   0.51913  -0.07669 
 C                    -2.80217  -2.28497   0.27514 
 C                    -3.32611  -2.57598   1.4884 
 C                    -3.38642  -1.40358   2.41881 
 C                    -2.93628  -0.24712   1.87576 
 C                    -3.79718  -3.9345    1.9102 
 C                    -3.93346  -1.53606   3.80962 
 C                     3.02006   0.52605  -1.75298 
 C                     3.46117   1.77051  -2.06644 
 C                     3.40671   2.74461  -0.93118 
 C                     2.87585   2.23116   0.20282 
 C                     3.92775   2.17823  -3.43245 
 C                     3.90001   4.15158  -1.07748 
 H                    -2.69614  -2.97833  -0.55806 
 H                    -2.90307   0.71925   2.37628 
 H                    -4.78998  -3.88912   2.38895 
 H                    -3.84936  -4.62265   1.05467 
 H                    -3.10126  -4.36437   2.65368 
 H                    -3.57748  -2.45891   4.2945 
 H                    -3.64812  -0.67776   4.43543 
 H                    -5.03729  -1.58781   3.79027 
 H                     2.96776  -0.32201  -2.43514 
 H                     2.75364   2.75973   1.14813 
 H                     4.79401   2.85839  -3.38836 
 H                     4.19232   1.30082  -4.0408 
 H                     3.12253   2.72416  -3.95937 
 H                     4.95854   4.17457  -1.38873 
 H                     3.32337   4.68235  -1.85525 
 H                     3.79693   4.70566  -0.13496 
 Pt                    0.02761  -0.0013    0.01702 
 Sn                   -0.53704   2.52171   0.65791 
 Cl                   -2.81487   3.21362   1.09883 
 Cl                    0.02118   4.24549  -0.93787 
 Cl                    0.47475   3.32331   2.71179 
 Sn                    0.53401  -2.48701  -0.8235 
 Cl                    0.35954  -4.28627   0.77844 
 Cl                    2.65761  -3.05987  -1.84582 
 Cl                   -0.89105  -3.2803   -2.62164 
 C                     3.37474  -0.48347   1.071 
 C                     3.03679  -0.45906   2.43742 
 C                     4.50377  -1.20014   0.63929 
 C                     3.83196  -1.13716   3.36367 
 H                     2.15795   0.0986    2.77945 
 C                     5.28909  -1.8831    1.5741 
 H                     4.7663   -1.23679  -0.41892 
 C                     4.95781  -1.84967   2.93401 
 H                     3.56884  -1.10766   4.42702 
 H                     6.16557  -2.44162   1.23515 
 H                     5.57674  -2.38168   3.66074 
 C                    -3.38018   0.22927  -1.06075 
 C                    -4.77488   0.09429  -0.94972 
 C                    -2.83155   0.90206  -2.16273 
 C                    -5.607     0.63507  -1.93017 
 H                    -5.21139  -0.43612  -0.09836 
 C                    -3.67232   1.44322  -3.14211 
 H                    -1.74635   1.00797  -2.26262 
 C                    -5.057     1.31146  -3.02731 
 H                    -6.69218   0.52526  -1.83914 
 H                    -3.23829   1.97104  -3.99547 
 H                    -5.7111    1.73569  -3.79294 
 
 NAtoms=     61 NQM=       61 NQMF=       0 NMMI=      0 NMMIF=      0
                NMic=       0 NMicF=      0.
                    Isotopes and Nuclear Properties:
 (Nuclear quadrupole moments (NQMom) in fm**2, nuclear magnetic moments (NMagM)
  in nuclear magnetons)

  Atom         1           2           3           4           5           6           7           8           9          10
 IAtWgt=          31          31          12          12          12          12          12          12          12          12
 AtmWgt=  30.9737634  30.9737634  12.0000000  12.0000000  12.0000000  12.0000000  12.0000000  12.0000000  12.0000000  12.0000000
 NucSpn=           1           1           0           0           0           0           0           0           0           0
 AtZEff=   0.0000000   0.0000000   0.0000000   0.0000000   0.0000000   0.0000000   0.0000000   0.0000000   0.0000000   0.0000000
 NQMom=    0.0000000   0.0000000   0.0000000   0.0000000   0.0000000   0.0000000   0.0000000   0.0000000   0.0000000   0.0000000
 NMagM=    1.1316000   1.1316000   0.0000000   0.0000000   0.0000000   0.0000000   0.0000000   0.0000000   0.0000000   0.0000000
 AtZNuc=  15.0000000  15.0000000   6.0000000   6.0000000   6.0000000   6.0000000   6.0000000   6.0000000   6.0000000   6.0000000

  Atom        11          12          13          14          15          16          17          18          19          20
 IAtWgt=          12          12          12          12           1           1           1           1           1           1
 AtmWgt=  12.0000000  12.0000000  12.0000000  12.0000000   1.0078250   1.0078250   1.0078250   1.0078250   1.0078250   1.0078250
 NucSpn=           0           0           0           0           1           1           1           1           1           1
 AtZEff=   0.0000000   0.0000000   0.0000000   0.0000000   0.0000000   0.0000000   0.0000000   0.0000000   0.0000000   0.0000000
 NQMom=    0.0000000   0.0000000   0.0000000   0.0000000   0.0000000   0.0000000   0.0000000   0.0000000   0.0000000   0.0000000
 NMagM=    0.0000000   0.0000000   0.0000000   0.0000000   2.7928460   2.7928460   2.7928460   2.7928460   2.7928460   2.7928460
 AtZNuc=   6.0000000   6.0000000   6.0000000   6.0000000   1.0000000   1.0000000   1.0000000   1.0000000   1.0000000   1.0000000

  Atom        21          22          23          24          25          26          27          28          29          30
 IAtWgt=           1           1           1           1           1           1           1           1           1           1
 AtmWgt=   1.0078250   1.0078250   1.0078250   1.0078250   1.0078250   1.0078250   1.0078250   1.0078250   1.0078250   1.0078250
 NucSpn=           1           1           1           1           1           1           1           1           1           1
 AtZEff=   0.0000000   0.0000000   0.0000000   0.0000000   0.0000000   0.0000000   0.0000000   0.0000000   0.0000000   0.0000000
 NQMom=    0.0000000   0.0000000   0.0000000   0.0000000   0.0000000   0.0000000   0.0000000   0.0000000   0.0000000   0.0000000
 NMagM=    2.7928460   2.7928460   2.7928460   2.7928460   2.7928460   2.7928460   2.7928460   2.7928460   2.7928460   2.7928460
 AtZNuc=   1.0000000   1.0000000   1.0000000   1.0000000   1.0000000   1.0000000   1.0000000   1.0000000   1.0000000   1.0000000

  Atom        31          32          33          34          35          36          37          38          39          40
 IAtWgt=         195         118          35          35          35         118          35          35          35          12
 AtmWgt= 194.9648000 117.9018000  34.9688527  34.9688527  34.9688527 117.9018000  34.9688527  34.9688527  34.9688527  12.0000000
 NucSpn=           1           0           3           3           3           0           3           3           3           0
 AtZEff=   0.0000000   0.0000000   0.0000000   0.0000000   0.0000000   0.0000000   0.0000000   0.0000000   0.0000000   0.0000000
 NQMom=    0.0000000   0.0000000  -8.1650000  -8.1650000  -8.1650000   0.0000000  -8.1650000  -8.1650000  -8.1650000   0.0000000
 NMagM=    0.6095000   0.0000000   0.8218740   0.8218740   0.8218740   0.0000000   0.8218740   0.8218740   0.8218740   0.0000000
 AtZNuc=  78.0000000  50.0000000  17.0000000  17.0000000  17.0000000  50.0000000  17.0000000  17.0000000  17.0000000   6.0000000

  Atom        41          42          43          44          45          46          47          48          49          50
 IAtWgt=          12          12          12           1          12           1          12           1           1           1
 AtmWgt=  12.0000000  12.0000000  12.0000000   1.0078250  12.0000000   1.0078250  12.0000000   1.0078250   1.0078250   1.0078250
 NucSpn=           0           0           0           1           0           1           0           1           1           1
 AtZEff=   0.0000000   0.0000000   0.0000000   0.0000000   0.0000000   0.0000000   0.0000000   0.0000000   0.0000000   0.0000000
 NQMom=    0.0000000   0.0000000   0.0000000   0.0000000   0.0000000   0.0000000   0.0000000   0.0000000   0.0000000   0.0000000
 NMagM=    0.0000000   0.0000000   0.0000000   2.7928460   0.0000000   2.7928460   0.0000000   2.7928460   2.7928460   2.7928460
 AtZNuc=   6.0000000   6.0000000   6.0000000   1.0000000   6.0000000   1.0000000   6.0000000   1.0000000   1.0000000   1.0000000

  Atom        51          52          53          54          55          56          57          58          59          60
 IAtWgt=          12          12          12          12           1          12           1          12           1           1
 AtmWgt=  12.0000000  12.0000000  12.0000000  12.0000000   1.0078250  12.0000000   1.0078250  12.0000000   1.0078250   1.0078250
 NucSpn=           0           0           0           0           1           0           1           0           1           1
 AtZEff=   0.0000000   0.0000000   0.0000000   0.0000000   0.0000000   0.0000000   0.0000000   0.0000000   0.0000000   0.0000000
 NQMom=    0.0000000   0.0000000   0.0000000   0.0000000   0.0000000   0.0000000   0.0000000   0.0000000   0.0000000   0.0000000
 NMagM=    0.0000000   0.0000000   0.0000000   0.0000000   2.7928460   0.0000000   2.7928460   0.0000000   2.7928460   2.7928460
 AtZNuc=   6.0000000   6.0000000   6.0000000   6.0000000   1.0000000   6.0000000   1.0000000   6.0000000   1.0000000   1.0000000

  Atom        61
 IAtWgt=           1
 AtmWgt=   1.0078250
 NucSpn=           1
 AtZEff=   0.0000000
 NQMom=    0.0000000
 NMagM=    2.7928460
 AtZNuc=   1.0000000
 Leave Link  101 at Sat Aug 24 07:24:17 2019, MaxMem=   939524096 cpu:         0.5
 (Enter /scr/programas/g09/l202.exe)
 Stoichiometry    C24H26Cl6P2PtSn2
 Framework group  C1[X(C24H26Cl6P2PtSn2)]
 Deg. of freedom   177
 Full point group                 C1      NOp   1
 Largest Abelian subgroup         C1      NOp   1
 Largest concise Abelian subgroup C1      NOp   1
                         Standard orientation:                         
 ---------------------------------------------------------------------
 Center     Atomic      Atomic             Coordinates (Angstroms)
 Number     Number       Type             X           Y           Z
 ---------------------------------------------------------------------
      1         15           0       -2.300608   -0.544500    0.206785
      2         15           0        2.357022    0.519132   -0.076686
      3          6           0       -2.802168   -2.284975    0.275139
      4          6           0       -3.326110   -2.575978    1.488395
      5          6           0       -3.386417   -1.403578    2.418806
      6          6           0       -2.936278   -0.247120    1.875763
      7          6           0       -3.797179   -3.934499    1.910201
      8          6           0       -3.933454   -1.536057    3.809622
      9          6           0        3.020060    0.526046   -1.752976
     10          6           0        3.461172    1.770508   -2.066441
     11          6           0        3.406708    2.744614   -0.931177
     12          6           0        2.875850    2.231159    0.202822
     13          6           0        3.927744    2.178234   -3.432454
     14          6           0        3.900012    4.151578   -1.077479
     15          1           0       -2.696142   -2.978331   -0.558064
     16          1           0       -2.903071    0.719249    2.376277
     17          1           0       -4.789978   -3.889123    2.388948
     18          1           0       -3.849358   -4.622653    1.054670
     19          1           0       -3.101257   -4.364366    2.653680
     20          1           0       -3.577475   -2.458910    4.294495
     21          1           0       -3.648117   -0.677763    4.435426
     22          1           0       -5.037288   -1.587811    3.790269
     23          1           0        2.967759   -0.322009   -2.435141
     24          1           0        2.753637    2.759735    1.148126
     25          1           0        4.794004    2.858392   -3.388355
     26          1           0        4.192316    1.300820   -4.040802
     27          1           0        3.122525    2.724165   -3.959369
     28          1           0        4.958534    4.174570   -1.388725
     29          1           0        3.323368    4.682354   -1.855252
     30          1           0        3.796927    4.705662   -0.134961
     31         78           0        0.027610   -0.001298    0.017015
     32         50           0       -0.537037    2.521713    0.657911
     33         17           0       -2.814866    3.213620    1.098830
     34         17           0        0.021182    4.245486   -0.937870
     35         17           0        0.474745    3.323311    2.711794
     36         50           0        0.534014   -2.487010   -0.823504
     37         17           0        0.359538   -4.286266    0.778437
     38         17           0        2.657615   -3.059866   -1.845823
     39         17           0       -0.891048   -3.280304   -2.621640
     40          6           0        3.374743   -0.483472    1.070997
     41          6           0        3.036786   -0.459061    2.437419
     42          6           0        4.503765   -1.200135    0.639291
     43          6           0        3.831962   -1.137156    3.363674
     44          1           0        2.157947    0.098605    2.779446
     45          6           0        5.289090   -1.883094    1.574095
     46          1           0        4.766300   -1.236790   -0.418917
     47          6           0        4.957810   -1.849667    2.934007
     48          1           0        3.568835   -1.107659    4.427019
     49          1           0        6.165575   -2.441620    1.235150
     50          1           0        5.576743   -2.381679    3.660743
     51          6           0       -3.380175    0.229265   -1.060748
     52          6           0       -4.774882    0.094291   -0.949724
     53          6           0       -2.831551    0.902058   -2.162731
     54          6           0       -5.606999    0.635066   -1.930166
     55          1           0       -5.211387   -0.436122   -0.098364
     56          6           0       -3.672315    1.443221   -3.142108
     57          1           0       -1.746349    1.007966   -2.262623
     58          6           0       -5.056997    1.311460   -3.027308
     59          1           0       -6.692181    0.525259   -1.839144
     60          1           0       -3.238294    1.971041   -3.995468
     61          1           0       -5.711098    1.735684   -3.792937
 ---------------------------------------------------------------------
 Rotational constants (GHZ):      0.0653328      0.0616310      0.0451107
 Leave Link  202 at Sat Aug 24 07:24:17 2019, MaxMem=   939524096 cpu:         0.0
 (Enter /scr/programas/g09/l301.exe)
 General basis read from cards:  (5D, 7F)
 Centers:      15     16     17     18     19     20     21     22     23     24
 Centers:      25     26     27     28     29     30     44     46     48     49
 Centers:      50     55     57     59     60     61
 S 5 1.00
     Exponent=  2.8295215633D+02 Coefficients=  4.3000000000D-04
     Exponent=  8.7062201949D+01 Coefficients=  5.1000000000D-04
     Exponent=  2.6788369830D+01 Coefficients=  6.1600000000D-03
     Exponent=  8.2425753324D+00 Coefficients=  1.3030000000D-02
     Exponent=  2.5361770254D+00 Coefficients=  9.9490000000D-02
 S 1 1.00
     Exponent=  7.8036216165D-01 Coefficients=  1.0000000000D+00
 S 1 1.00
     Exponent=  2.4011143435D-01 Coefficients=  1.0000000000D+00
 P 1 1.00
     Exponent=  8.8150000000D-01 Coefficients=  1.0000000000D+00
 P 1 1.00
     Exponent=  1.7989200000D-01 Coefficients=  1.0000000000D+00
 ****
 Centers:       3      4      5      6      7      8      9     10     11     12
 Centers:      13     14     40     41     42     43     45     47     51     52
 Centers:      53     54     56     58
 S 6 1.00
     Exponent=  8.8461235339D+03 Coefficients=  5.3000000000D-04
     Exponent=  2.9487078446D+03 Coefficients=  7.7000000000D-04
     Exponent=  9.8290261488D+02 Coefficients=  4.0500000000D-03
     Exponent=  3.2763420496D+02 Coefficients=  1.4030000000D-02
     Exponent=  1.0921140165D+02 Coefficients=  5.3450000000D-02
     Exponent=  3.6403800551D+01 Coefficients=  1.7027000000D-01
 S 1 1.00
     Exponent=  1.2134600184D+01 Coefficients=  1.0000000000D+00
 S 1 1.00
     Exponent=  4.0448667279D+00 Coefficients=  1.0000000000D+00
 S 1 1.00
     Exponent=  1.3482889093D+00 Coefficients=  1.0000000000D+00
 S 1 1.00
     Exponent=  4.4942963643D-01 Coefficients=  1.0000000000D+00
 S 1 1.00
     Exponent=  1.4980987881D-01 Coefficients=  1.0000000000D+00
 P 4 1.00
     Exponent=  3.7294093393D+01 Coefficients=  3.9600000000D-03
     Exponent=  1.1475105659D+01 Coefficients=  1.8890000000D-02
     Exponent=  3.5308017414D+00 Coefficients=  9.4610000000D-02
     Exponent=  1.0864005358D+00 Coefficients=  3.1889000000D-01
 P 1 1.00
     Exponent=  3.3427708794D-01 Coefficients=  1.0000000000D+00
 P 1 1.00
     Exponent=  1.0285448860D-01 Coefficients=  1.0000000000D+00
 D 1 1.00
     Exponent=  4.7750000000D-01 Coefficients=  1.0000000000D+00
 D 1 1.00
     Exponent=  1.1998000000D-01 Coefficients=  1.0000000000D+00
 ****
 Centers:       1      2
 S 7 1.00
     Exponent=  5.9538004301D+04 Coefficients=  9.5000000000D-04
     Exponent=  2.1650183382D+04 Coefficients=  6.1000000000D-04
     Exponent=  7.8727939572D+03 Coefficients=  3.7500000000D-03
     Exponent=  2.8628341663D+03 Coefficients=  9.6300000000D-03
     Exponent=  1.0410306059D+03 Coefficients=  3.2430000000D-02
     Exponent=  3.7855658397D+02 Coefficients=  9.9500000000D-02
     Exponent=  1.3765693962D+02 Coefficients=  2.6570000000D-01
 S 1 1.00
     Exponent=  5.0057068954D+01 Coefficients=  1.0000000000D+00
 S 1 1.00
     Exponent=  1.8202570529D+01 Coefficients=  1.0000000000D+00
 S 1 1.00
     Exponent=  6.6191165560D+00 Coefficients=  1.0000000000D+00
 S 1 1.00
     Exponent=  2.4069514749D+00 Coefficients=  1.0000000000D+00
 S 1 1.00
     Exponent=  8.7525508178D-01 Coefficients=  1.0000000000D+00
 S 1 1.00
     Exponent=  3.1827457519D-01 Coefficients=  1.0000000000D+00
 S 1 1.00
     Exponent=  1.1573620916D-01 Coefficients=  1.0000000000D+00
 S 1 1.00
     Exponent=  4.2085894240D-02 Coefficients=  1.0000000000D+00
 P 5 1.00
     Exponent=  4.8799672315D+02 Coefficients=  2.1600000000D-03
     Exponent=  1.6266557438D+02 Coefficients=  9.7900000000D-03
     Exponent=  5.4221858128D+01 Coefficients=  5.4850000000D-02
     Exponent=  1.8073952709D+01 Coefficients=  2.1770000000D-01
     Exponent=  6.0246509031D+00 Coefficients=  4.8978000000D-01
 P 1 1.00
     Exponent=  2.0082169677D+00 Coefficients=  1.0000000000D+00
 P 1 1.00
     Exponent=  6.6940565590D-01 Coefficients=  1.0000000000D+00
 P 1 1.00
     Exponent=  2.2313521863D-01 Coefficients=  1.0000000000D+00
 P 1 1.00
     Exponent=  7.4378406211D-02 Coefficients=  1.0000000000D+00
 P 1 1.00
     Exponent=  2.4792802070D-02 Coefficients=  1.0000000000D+00
 D 1 1.00
     Exponent=  3.5395000000D-01 Coefficients=  1.0000000000D+00
 D 1 1.00
     Exponent=  8.9098000000D-02 Coefficients=  1.0000000000D+00
 ****
 Centers:      33     34     35     37     38     39
 S 7 1.00
     Exponent=  7.7142817164D+04 Coefficients=  1.0600000000D-03
     Exponent=  2.8051933514D+04 Coefficients=  6.4000000000D-04
     Exponent=  1.0200703096D+04 Coefficients=  3.9600000000D-03
     Exponent=  3.7093465804D+03 Coefficients=  9.8300000000D-03
     Exponent=  1.3488533020D+03 Coefficients=  3.2690000000D-02
     Exponent=  4.9049210981D+02 Coefficients=  9.9520000000D-02
     Exponent=  1.7836076720D+02 Coefficients=  2.6555000000D-01
 S 1 1.00
     Exponent=  6.4858460801D+01 Coefficients=  1.0000000000D+00
 S 1 1.00
     Exponent=  2.3584894837D+01 Coefficients=  1.0000000000D+00
 S 1 1.00
     Exponent=  8.5763253951D+00 Coefficients=  1.0000000000D+00
 S 1 1.00
     Exponent=  3.1186637801D+00 Coefficients=  1.0000000000D+00
 S 1 1.00
     Exponent=  1.1340595564D+00 Coefficients=  1.0000000000D+00
 S 1 1.00
     Exponent=  4.1238529323D-01 Coefficients=  1.0000000000D+00
 S 1 1.00
     Exponent=  1.4995828845D-01 Coefficients=  1.0000000000D+00
 S 1 1.00
     Exponent=  5.4530286708D-02 Coefficients=  1.0000000000D+00
 P 5 1.00
     Exponent=  6.9498536057D+02 Coefficients=  2.0000000000D-03
     Exponent=  2.3166178686D+02 Coefficients=  8.9500000000D-03
     Exponent=  7.7220595619D+01 Coefficients=  5.1130000000D-02
     Exponent=  2.5740198540D+01 Coefficients=  2.1011000000D-01
     Exponent=  8.5800661799D+00 Coefficients=  4.9738000000D-01
 P 1 1.00
     Exponent=  2.8600220600D+00 Coefficients=  1.0000000000D+00
 P 1 1.00
     Exponent=  9.5334068665D-01 Coefficients=  1.0000000000D+00
 P 1 1.00
     Exponent=  3.1778022888D-01 Coefficients=  1.0000000000D+00
 P 1 1.00
     Exponent=  1.0592674296D-01 Coefficients=  1.0000000000D+00
 P 1 1.00
     Exponent=  3.5308914320D-02 Coefficients=  1.0000000000D+00
 D 1 1.00
     Exponent=  5.5696000000D-01 Coefficients=  1.0000000000D+00
 D 1 1.00
     Exponent=  1.5619100000D-01 Coefficients=  1.0000000000D+00
 ****
 Centers:      32     36
 S 8 1.00
     Exponent=  7.5448214551D+05 Coefficients=  4.4300000000D-03
     Exponent=  3.3532539800D+05 Coefficients=  1.9800000000D-03
     Exponent=  1.4903351022D+05 Coefficients=  9.0500000000D-03
     Exponent=  6.6237115655D+04 Coefficients=  4.8700000000D-03
     Exponent=  2.9438718069D+04 Coefficients=  2.0770000000D-02
     Exponent=  1.3083874697D+04 Coefficients=  3.2900000000D-02
     Exponent=  5.8150554210D+03 Coefficients=  7.7010000000D-02
     Exponent=  2.5844690760D+03 Coefficients=  1.5160000000D-01
 S 1 1.00
     Exponent=  1.1486529227D+03 Coefficients=  1.0000000000D+00
 S 1 1.00
     Exponent=  5.1051241008D+02 Coefficients=  1.0000000000D+00
 S 1 1.00
     Exponent=  2.2689440448D+02 Coefficients=  1.0000000000D+00
 S 1 1.00
     Exponent=  1.0084195755D+02 Coefficients=  1.0000000000D+00
 S 1 1.00
     Exponent=  4.4818647798D+01 Coefficients=  1.0000000000D+00
 S 1 1.00
     Exponent=  1.9919399021D+01 Coefficients=  1.0000000000D+00
 S 1 1.00
     Exponent=  8.8530662317D+00 Coefficients=  1.0000000000D+00
 S 1 1.00
     Exponent=  3.9346961030D+00 Coefficients=  1.0000000000D+00
 S 1 1.00
     Exponent=  1.7487538235D+00 Coefficients=  1.0000000000D+00
 S 1 1.00
     Exponent=  7.7722392158D-01 Coefficients=  1.0000000000D+00
 S 1 1.00
     Exponent=  3.4543285403D-01 Coefficients=  1.0000000000D+00
 S 1 1.00
     Exponent=  1.5352571290D-01 Coefficients=  1.0000000000D+00
 S 1 1.00
     Exponent=  6.8233650180D-02 Coefficients=  1.0000000000D+00
 S 1 1.00
     Exponent=  1.3478251887D-02 Coefficients=  1.0000000000D+00
 P 5 1.00
     Exponent=  1.0090658304D+04 Coefficients=  2.7500000000D-03
     Exponent=  4.0362633217D+03 Coefficients=  4.1800000000D-03
     Exponent=  1.6145053287D+03 Coefficients=  2.0890000000D-02
     Exponent=  6.4580213147D+02 Coefficients=  7.1370000000D-02
     Exponent=  2.5832085259D+02 Coefficients=  2.2613000000D-01
 P 1 1.00
     Exponent=  1.0332834104D+02 Coefficients=  1.0000000000D+00
 P 1 1.00
     Exponent=  4.1331336414D+01 Coefficients=  1.0000000000D+00
 P 1 1.00
     Exponent=  1.6532534566D+01 Coefficients=  1.0000000000D+00
 P 1 1.00
     Exponent=  6.6130138263D+00 Coefficients=  1.0000000000D+00
 P 1 1.00
     Exponent=  2.6452055305D+00 Coefficients=  1.0000000000D+00
 P 1 1.00
     Exponent=  1.0580822122D+00 Coefficients=  1.0000000000D+00
 P 1 1.00
     Exponent=  4.2323288488D-01 Coefficients=  1.0000000000D+00
 P 1 1.00
     Exponent=  1.6929315395D-01 Coefficients=  1.0000000000D+00
 P 1 1.00
     Exponent=  6.7717261581D-02 Coefficients=  1.0000000000D+00
 P 1 1.00
     Exponent=  2.7086904632D-02 Coefficients=  1.0000000000D+00
 P 1 1.00
     Exponent=  1.0834761853D-02 Coefficients=  1.0000000000D+00
 D 4 1.00
     Exponent=  5.5430250651D+02 Coefficients=  4.3700000000D-03
     Exponent=  2.0156454782D+02 Coefficients=  2.5110000000D-02
     Exponent=  7.3296199207D+01 Coefficients=  1.3316000000D-01
     Exponent=  2.6653163348D+01 Coefficients=  3.8900000000D-01
 D 1 1.00
     Exponent=  9.6920593993D+00 Coefficients=  1.0000000000D+00
 D 1 1.00
     Exponent=  3.5243852361D+00 Coefficients=  1.0000000000D+00
 D 1 1.00
     Exponent=  1.2815946313D+00 Coefficients=  1.0000000000D+00
 D 1 1.00
     Exponent=  4.6603441139D-01 Coefficients=  1.0000000000D+00
 D 1 1.00
     Exponent=  1.6946705869D-01 Coefficients=  1.0000000000D+00
 F 1 1.00
     Exponent=  1.3140000000D+00 Coefficients=  1.0000000000D+00
 F 1 1.00
     Exponent=  1.9993000000D-01 Coefficients=  1.0000000000D+00
 ****
 Centers:      31
 S 9 1.00
     Exponent=  2.1644816090D+06 Coefficients=  1.2320000000D-02
     Exponent=  1.0822408045D+06 Coefficients=  1.2970000000D-02
     Exponent=  5.4112040224D+05 Coefficients=  2.6370000000D-02
     Exponent=  2.7056020112D+05 Coefficients=  9.0400000000D-03
     Exponent=  1.3528010056D+05 Coefficients=  3.4980000000D-02
     Exponent=  6.7640050280D+04 Coefficients=  1.2220000000D-02
     Exponent=  3.3820025140D+04 Coefficients=  6.0520000000D-02
     Exponent=  1.6910012570D+04 Coefficients=  6.4930000000D-02
     Exponent=  8.4550062850D+03 Coefficients=  1.3819000000D-01
 S 1 1.00
     Exponent=  4.2275031425D+03 Coefficients=  1.0000000000D+00
 S 1 1.00
     Exponent=  2.1137515713D+03 Coefficients=  1.0000000000D+00
 S 1 1.00
     Exponent=  1.0568757856D+03 Coefficients=  1.0000000000D+00
 S 1 1.00
     Exponent=  5.2843789281D+02 Coefficients=  1.0000000000D+00
 S 1 1.00
     Exponent=  2.6421894641D+02 Coefficients=  1.0000000000D+00
 S 1 1.00
     Exponent=  1.3210947320D+02 Coefficients=  1.0000000000D+00
 S 1 1.00
     Exponent=  6.6054736602D+01 Coefficients=  1.0000000000D+00
 S 1 1.00
     Exponent=  3.3027368301D+01 Coefficients=  1.0000000000D+00
 S 1 1.00
     Exponent=  1.6513684150D+01 Coefficients=  1.0000000000D+00
 S 1 1.00
     Exponent=  8.2568420752D+00 Coefficients=  1.0000000000D+00
 S 1 1.00
     Exponent=  4.1284210376D+00 Coefficients=  1.0000000000D+00
 S 1 1.00
     Exponent=  2.0642105188D+00 Coefficients=  1.0000000000D+00
 S 1 1.00
     Exponent=  1.0321052594D+00 Coefficients=  1.0000000000D+00
 S 1 1.00
     Exponent=  5.1605262970D-01 Coefficients=  1.0000000000D+00
 S 1 1.00
     Exponent=  2.5802631485D-01 Coefficients=  1.0000000000D+00
 S 1 1.00
     Exponent=  1.2901315743D-01 Coefficients=  1.0000000000D+00
 S 1 1.00
     Exponent=  6.4506578713D-02 Coefficients=  1.0000000000D+00
 P 7 1.00
     Exponent=  3.2357915258D+04 Coefficients=  5.0200000000D-03
     Exponent=  1.4381295670D+04 Coefficients=  2.0200000000D-03
     Exponent=  6.3916869645D+03 Coefficients=  1.8070000000D-02
     Exponent=  2.8407497620D+03 Coefficients=  3.6620000000D-02
     Exponent=  1.2625554498D+03 Coefficients=  1.1172000000D-01
     Exponent=  5.6113575545D+02 Coefficients=  2.5586000000D-01
     Exponent=  2.4939366909D+02 Coefficients=  4.2608000000D-01
 P 1 1.00
     Exponent=  1.1084163071D+02 Coefficients=  1.0000000000D+00
 P 1 1.00
     Exponent=  4.9262946981D+01 Coefficients=  1.0000000000D+00
 P 1 1.00
     Exponent=  2.1894643103D+01 Coefficients=  1.0000000000D+00
 P 1 1.00
     Exponent=  9.7309524900D+00 Coefficients=  1.0000000000D+00
 P 1 1.00
     Exponent=  4.3248677733D+00 Coefficients=  1.0000000000D+00
 P 1 1.00
     Exponent=  1.9221634548D+00 Coefficients=  1.0000000000D+00
 P 1 1.00
     Exponent=  8.5429486881D-01 Coefficients=  1.0000000000D+00
 P 1 1.00
     Exponent=  3.7968660836D-01 Coefficients=  1.0000000000D+00
 P 1 1.00
     Exponent=  1.6874960372D-01 Coefficients=  1.0000000000D+00
 P 1 1.00
     Exponent=  7.4999823874D-02 Coefficients=  1.0000000000D+00
 P 1 1.00
     Exponent=  3.3333255055D-02 Coefficients=  1.0000000000D+00
 D 5 1.00
     Exponent=  1.9119003508D+03 Coefficients=  4.3300000000D-03
     Exponent=  7.6476014031D+02 Coefficients=  1.7780000000D-02
     Exponent=  3.0590405613D+02 Coefficients=  8.9710000000D-02
     Exponent=  1.2236162245D+02 Coefficients=  3.1123000000D-01
     Exponent=  4.8944648980D+01 Coefficients=  5.3206000000D-01
 D 1 1.00
     Exponent=  1.9577859592D+01 Coefficients=  1.0000000000D+00
 D 1 1.00
     Exponent=  7.8311438368D+00 Coefficients=  1.0000000000D+00
 D 1 1.00
     Exponent=  3.1324575347D+00 Coefficients=  1.0000000000D+00
 D 1 1.00
     Exponent=  1.2529830139D+00 Coefficients=  1.0000000000D+00
 D 1 1.00
     Exponent=  5.0119320556D-01 Coefficients=  1.0000000000D+00
 D 1 1.00
     Exponent=  2.0047728222D-01 Coefficients=  1.0000000000D+00
 D 1 1.00
     Exponent=  8.0190912889D-02 Coefficients=  1.0000000000D+00
 D 1 1.00
     Exponent=  3.2076365156D-02 Coefficients=  1.0000000000D+00
 F 4 1.00
     Exponent=  8.2289680979D+01 Coefficients=  6.1870000000D-02
     Exponent=  2.9923520356D+01 Coefficients=  2.4823000000D-01
     Exponent=  1.0881280130D+01 Coefficients=  4.9956000000D-01
     Exponent=  3.9568291380D+00 Coefficients=  4.0380000000D-01
 F 1 1.00
     Exponent=  1.4388469593D+00 Coefficients=  1.0000000000D+00
 F 1 1.00
     Exponent=  5.2321707610D-01 Coefficients=  1.0000000000D+00
 G 1 1.00
     Exponent=  2.6700000000D+00 Coefficients=  1.0000000000D+00
 G 1 1.00
     Exponent=  9.0960000000D-01 Coefficients=  1.0000000000D+00
 ****
 Ernie: Thresh=  0.10000D-02 Tol=  0.10000D-05 Strict=F.
 There are  1576 symmetry adapted cartesian basis functions of A   symmetry.
 There are  1458 symmetry adapted basis functions of A   symmetry.
  1458 basis functions,  2314 primitive gaussians,  1576 cartesian basis functions
   240 alpha electrons      240 beta electrons
       nuclear repulsion energy     13026.9664308450 Hartrees.
 IExCor= 1009 DFT=T Ex=PBE Corr=PBE ExCW=0 ScaHFX=  0.000000
 ScaDFX=  1.000000  1.000000  1.000000  1.000000 ScalE2=  1.000000  1.000000
 IRadAn=      0 IRanWt=     -1 IRanGd=            0 ICorTp=0 IEmpDi=  4
 NAtoms=   61 NActive=   61 NUniq=   61 SFac= 1.00D+00 NAtFMM=   60 NAOKFM=T Big=T
 Integral buffers will be    131072 words long.
 Raffenetti 2 integral format.
 Two-electron integral symmetry is turned on.
 ------------------------------------------------------------------------------
 Polarizable Continuum Model (PCM)
 =================================
 Model                : PCM (using non-symmetric T matrix).
 Atomic radii         : UFF (Universal Force Field).
 Polarization charges : Total charges.
 Charge compensation  : None.
 Solution method      : On-the-fly selection.
 Cavity type          : Scaled VdW (van der Waals Surface) (Alpha=1.100).
 Cavity algorithm     : GePol (No added spheres)
                        Default sphere list used, NSphG=   61.
                        Lebedev-Laikov grids with approx.  5.0 points / Ang**2.
                        Smoothing algorithm: Karplus/York (Gamma=1.0000).
                        Polarization charges: spherical gaussians, with
                                              point-specific exponents (IZeta= 3).
                        Self-potential: point-specific (ISelfS= 7).
                        Self-field    : sphere-specific E.n sum rule (ISelfD= 2).
 Solvent              : Dichloromethane, Eps=   8.930000 Eps(inf)=   2.028346
 ------------------------------------------------------------------------------
 GePol: Number of generator spheres                  =      61
 GePol: Total number of spheres                      =      61
 GePol: Number of exposed spheres                    =      61 (100.00%)
 GePol: Number of points                             =    5061
 GePol: Average weight of points                     =       0.14
 GePol: Minimum weight of points                     =   0.10D-10
 GePol: Maximum weight of points                     =    0.21838
 GePol: Number of points with low weight             =     312
 GePol: Fraction of low-weight points (<1% of avg)   =       6.16%
 GePol: Cavity surface area                          =    708.114 Ang**2
 GePol: Cavity volume                                =    830.557 Ang**3
 Leave Link  301 at Sat Aug 24 07:24:18 2019, MaxMem=   939524096 cpu:         0.9
 (Enter /scr/programas/g09/l302.exe)
 NPDir=0 NMtPBC=     1 NCelOv=     1 NCel=       1 NClECP=     1 NCelD=      1
         NCelK=      1 NCelE2=     1 NClLst=     1 CellRange=     0.0.
 One-electron integrals computed using PRISM.
 NBasis=  1458 RedAO= T EigKep=  1.79D-06  NBF=  1458
 NBsUse=  1458 1.00D-06 EigRej= -1.00D+00 NBFU=  1458
 Precomputing XC quadrature grid using
 IXCGrd= 4 IRadAn=           0 IRanWt=          -1 IRanGd=           0 AccXCQ= 0.00D+00.
 Defaulting to unpruned grid for atomic number  50.
 Defaulting to unpruned grid for atomic number  78.
 Generated NRdTot=       0 NPtTot=           0 NUsed=           0 NTot=          32
 NSgBfM=  1368  1369  1370  1370  1370 MxSgAt=    61 MxSgA2=    61.
 Leave Link  302 at Sat Aug 24 07:24:29 2019, MaxMem=   939524096 cpu:        47.2
 (Enter /scr/programas/g09/l308.exe)
 Leave Link  308 at Sat Aug 24 07:24:31 2019, MaxMem=   939524096 cpu:         3.9
 (Enter /scr/programas/g09/l303.exe)
 DipDrv:  MaxL=1.
 Leave Link  303 at Sat Aug 24 07:24:31 2019, MaxMem=   939524096 cpu:         2.3
 (Enter /scr/programas/g09/l401.exe)
 ExpMin= 1.08D-02 ExpMax= 2.16D+06 ExpMxC= 2.16D+06 IAcc=4 IRadAn=    199590 AccDes= 0.00D+00
 Harris functional with IExCor= 1009 and IRadAn=  199590 diagonalized for initial guess.
 HarFok:  IExCor= 1009 AccDes= 0.00D+00 IRadAn=    199590 IDoV= 1 UseB2=F ITyADJ=14
 ICtDFT=  3500011 ScaDFX=  1.000000  1.000000  1.000000  1.000000
 FoFCou: FMM=F IPFlag=           0 FMFlag=      100000 FMFlg1=        2001
         NFxFlg=           0 DoJE=T BraDBF=F KetDBF=T FulRan=T
         wScrn=  0.000000 ICntrl=     500 IOpCl=  0 I1Cent=   200000004 NGrid=           0
         NMat0=    1 NMatS0=      1 NMatT0=    0 NMatD0=    1 NMtDS0=    0 NMtDT0=    0
 Petite list used in FoFCou.
 Harris En= -33457.7243521831    
 JPrj=0 DoOrth=F DoCkMO=F.
 Leave Link  401 at Sat Aug 24 07:30:46 2019, MaxMem=   939524096 cpu:      1487.0
 (Enter /scr/programas/g09/l502.exe)
 Closed shell SCF:
 Using DIIS extrapolation, IDIIS=  1040.
 Integral symmetry usage will be decided dynamically.
 IVT=     7726490 IEndB=     7726490 NGot=   939524096 MDV=   934533959
 LenX=   934533959 LenY=   932048607
 Requested convergence on RMS density matrix=1.00D-04 within 500 cycles.
 Requested convergence on MAX density matrix=1.00D-02.
 Requested convergence on             energy=1.00D-02.
 No special actions if energy rises.
 Fock matrices will be formed incrementally for  20 cycles.

 Cycle   1  Pass 1  IDiag  1:
 FoFJK:  IHMeth= 1 ICntrl=     500 DoSepK=F KAlg= 0 I1Cent=   0 FoldK=F
 IRaf= 640000000 NMat=   1 IRICut=       1 DoRegI=T DoRafI=F ISym2E= 0.
 FoFCou: FMM=T IPFlag=           0 FMFlag=      100000 FMFlg1=        2001
         NFxFlg=           0 DoJE=T BraDBF=F KetDBF=F FulRan=T
         wScrn=  0.000000 ICntrl=     500 IOpCl=  0 I1Cent=           0 NGrid=           0
         NMat0=    1 NMatS0=      1 NMatT0=    0 NMatD0=    1 NMtDS0=    0 NMtDT0=    0
 Symmetry not used in FoFCou.
 FMM levels:  10  Number of levels for PrismC:   9
 Defaulting to unpruned grid for atomic number  78.
 Defaulting to unpruned grid for atomic number  78.
 Defaulting to unpruned grid for atomic number  78.
 Defaulting to unpruned grid for atomic number  78.
 Inv3:  Mode=1 IEnd=    76841163.
 Iteration    1 A*A^-1 deviation from unit magnitude is 8.88D-15 for   1930.
 Iteration    1 A*A^-1 deviation from orthogonality  is 1.17D-14 for   5006   4451.
 Iteration    1 A^-1*A deviation from unit magnitude is 8.88D-15 for   4137.
 Iteration    1 A^-1*A deviation from orthogonality  is 7.12D-09 for   3495   3484.
 Iteration    2 A*A^-1 deviation from unit magnitude is 8.66D-15 for    546.
 Iteration    2 A*A^-1 deviation from orthogonality  is 9.79D-15 for   2081    324.
 Iteration    2 A^-1*A deviation from unit magnitude is 2.44D-15 for   3669.
 Iteration    2 A^-1*A deviation from orthogonality  is 8.14D-16 for   2606     58.
 E= -33436.4801353780    
 DIIS: error= 3.73D-01 at cycle   1 NSaved=   1.
 NSaved= 1 IEnMin= 1 EnMin= -33436.4801353780     IErMin= 1 ErrMin= 3.73D-01
 ErrMax= 3.73D-01  0.00D+00 EMaxC= 1.00D-01 BMatC= 3.55D+02 BMatP= 3.55D+02
 IDIUse=3 WtCom= 0.00D+00 WtEn= 1.00D+00
 Coeff-Com:  0.100D+01
 Coeff-En:   0.100D+01
 Coeff:      0.100D+01
 Gap=     0.545 Goal=   None    Shift=    0.000
 GapD=    0.545 DampG=2.000 DampE=0.125 DampFc=0.2500 IDamp=-1.
 Damping current iteration by 2.50D-01
 RMSDP=1.82D-02 MaxDP=1.70D+00              OVMax= 7.17D-01

 Cycle   2  Pass 1  IDiag  1:
 RMSU=  4.46D-03    CP:  1.07D+00
 E= -33437.8525469908     Delta-E=       -1.372411612843 Rises=F Damp=T
 DIIS: error= 2.45D-01 at cycle   2 NSaved=   2.
 NSaved= 2 IEnMin= 2 EnMin= -33437.8525469908     IErMin= 2 ErrMin= 2.45D-01
 ErrMax= 2.45D-01  0.00D+00 EMaxC= 1.00D-01 BMatC= 1.71D+02 BMatP= 3.55D+02
 IDIUse=3 WtCom= 0.00D+00 WtEn= 1.00D+00
 Coeff-Com: -0.192D+01 0.292D+01
 Coeff-En:   0.287D+00 0.713D+00
 Coeff:      0.287D+00 0.713D+00
 Gap=    -0.071 Goal=   None    Shift=    0.000
 RMSDP=4.64D-03 MaxDP=3.78D-01 DE=-1.37D+00 OVMax= 8.88D-01

 Cycle   3  Pass 1  IDiag  1:
 RMSU=  3.25D-03    CP:  9.56D-01  3.30D-01
 E= -33439.6705970379     Delta-E=       -1.818050047099 Rises=F Damp=F
 DIIS: error= 8.80D-02 at cycle   3 NSaved=   3.
 NSaved= 3 IEnMin= 3 EnMin= -33439.6705970379     IErMin= 3 ErrMin= 8.80D-02
 ErrMax= 8.80D-02  0.00D+00 EMaxC= 1.00D-01 BMatC= 1.92D+01 BMatP= 1.71D+02
 IDIUse=3 WtCom= 1.20D-01 WtEn= 8.80D-01
 EnCoef did   100 forward-backward iterations
 Coeff-Com:  0.778D+00-0.870D+00 0.109D+01
 Coeff-En:   0.344D+00 0.644D-02 0.650D+00
 Coeff:      0.396D+00-0.991D-01 0.703D+00
 Gap=     0.101 Goal=   None    Shift=    0.000
 RMSDP=4.46D-03 MaxDP=5.18D-01 DE=-1.82D+00 OVMax= 7.00D-01

 Cycle   4  Pass 1  IDiag  1:
 RMSU=  3.94D-03    CP:  9.90D-01  3.41D-01  3.74D-01
 E= -33437.6430282111     Delta-E=        2.027568826801 Rises=F Damp=F
 DIIS: error= 6.12D-02 at cycle   4 NSaved=   4.
 NSaved= 4 IEnMin= 3 EnMin= -33439.6705970379     IErMin= 4 ErrMin= 6.12D-02
 ErrMax= 6.12D-02  0.00D+00 EMaxC= 1.00D-01 BMatC= 7.36D+00 BMatP= 1.92D+01
 IDIUse=3 WtCom= 3.88D-01 WtEn= 6.12D-01
 EnCoef did     6 forward-backward iterations
 Coeff-Com:  0.213D+00-0.215D+00 0.485D+00 0.517D+00
 Coeff-En:   0.434D-01 0.000D+00 0.583D+00 0.374D+00
 Coeff:      0.109D+00-0.834D-01 0.545D+00 0.429D+00
 Gap=     0.313 Goal=   None    Shift=    0.000
 RMSDP=4.19D-03 MaxDP=6.74D-01 DE= 2.03D+00 OVMax= 4.74D-01

 Cycle   5  Pass 1  IDiag  1:
 RMSU=  1.22D-03    CP:  9.58D-01  2.19D-01  5.83D-01  1.28D-02
 E= -33442.1791805307     Delta-E=       -4.536152319532 Rises=F Damp=F
 DIIS: error= 1.73D-02 at cycle   5 NSaved=   5.
 NSaved= 5 IEnMin= 5 EnMin= -33442.1791805307     IErMin= 5 ErrMin= 1.73D-02
 ErrMax= 1.73D-02  0.00D+00 EMaxC= 1.00D-01 BMatC= 1.20D+00 BMatP= 7.36D+00
 IDIUse=3 WtCom= 8.27D-01 WtEn= 1.73D-01
 Coeff-Com: -0.105D+00 0.155D+00 0.120D+00 0.233D+00 0.597D+00
 Coeff-En:   0.000D+00 0.000D+00 0.000D+00 0.163D+00 0.837D+00
 Coeff:     -0.869D-01 0.128D+00 0.993D-01 0.221D+00 0.638D+00
 Gap=     0.078 Goal=   None    Shift=    0.000
 RMSDP=1.66D-03 MaxDP=1.88D-01 DE=-4.54D+00 OVMax= 1.64D-01

 Cycle   6  Pass 1  IDiag  1:
 RMSU=  1.01D-03    CP:  9.73D-01  1.79D-01  6.03D-01  2.05D-01  1.37D-01
 E= -33442.6812587191     Delta-E=       -0.502078188416 Rises=F Damp=F
 DIIS: error= 6.08D-03 at cycle   6 NSaved=   6.
 NSaved= 6 IEnMin= 6 EnMin= -33442.6812587191     IErMin= 6 ErrMin= 6.08D-03
 ErrMax= 6.08D-03  0.00D+00 EMaxC= 1.00D-01 BMatC= 2.47D-01 BMatP= 1.20D+00
 IDIUse=3 WtCom= 9.39D-01 WtEn= 6.08D-02
 Coeff-Com: -0.106D+00 0.144D+00 0.572D-02 0.532D-01 0.359D+00 0.544D+00
 Coeff-En:   0.000D+00 0.000D+00 0.000D+00 0.000D+00 0.244D+00 0.756D+00
 Coeff:     -0.994D-01 0.136D+00 0.537D-02 0.500D-01 0.352D+00 0.557D+00
 Gap=     0.102 Goal=   None    Shift=    0.000
 RMSDP=1.07D-03 MaxDP=1.23D-01 DE=-5.02D-01 OVMax= 1.74D-01

 Cycle   7  Pass 1  IDiag  1:
 RMSU=  7.13D-04    CP:  9.47D-01  1.84D-01  6.24D-01  2.25D-01  4.82D-01
                    CP:  4.35D-01
 E= -33442.8156913156     Delta-E=       -0.134432596533 Rises=F Damp=F
 DIIS: error= 3.67D-03 at cycle   7 NSaved=   7.
 NSaved= 7 IEnMin= 7 EnMin= -33442.8156913156     IErMin= 7 ErrMin= 3.67D-03
 ErrMax= 3.67D-03  0.00D+00 EMaxC= 1.00D-01 BMatC= 7.67D-02 BMatP= 2.47D-01
 IDIUse=3 WtCom= 9.63D-01 WtEn= 3.67D-02
 Coeff-Com: -0.783D-01 0.106D+00-0.114D-01 0.153D-01 0.197D+00 0.399D+00
 Coeff-Com:  0.373D+00
 Coeff-En:   0.000D+00 0.000D+00 0.000D+00 0.000D+00 0.000D+00 0.299D+00
 Coeff-En:   0.701D+00
 Coeff:     -0.754D-01 0.102D+00-0.110D-01 0.147D-01 0.189D+00 0.395D+00
 Coeff:      0.386D+00
 Gap=     0.085 Goal=   None    Shift=    0.000
 RMSDP=4.86D-04 MaxDP=3.67D-02 DE=-1.34D-01 OVMax= 9.68D-02

 Cycle   8  Pass 1  IDiag  1:
 RMSU=  2.82D-04    CP:  9.56D-01  2.02D-01  6.33D-01  2.29D-01  4.33D-01
                    CP:  5.57D-01  5.23D-01
 E= -33442.8980148370     Delta-E=       -0.082323521419 Rises=F Damp=F
 DIIS: error= 9.91D-04 at cycle   8 NSaved=   8.
 NSaved= 8 IEnMin= 8 EnMin= -33442.8980148370     IErMin= 8 ErrMin= 9.91D-04
 ErrMax= 9.91D-04  0.00D+00 EMaxC= 1.00D-01 BMatC= 6.77D-03 BMatP= 7.67D-02
 IDIUse=3 WtCom= 9.90D-01 WtEn= 9.91D-03
 Coeff-Com: -0.123D-01 0.163D-01-0.528D-02 0.371D-02 0.229D-01 0.837D-01
 Coeff-Com:  0.228D+00 0.663D+00
 Coeff-En:   0.000D+00 0.000D+00 0.000D+00 0.000D+00 0.000D+00 0.000D+00
 Coeff-En:   0.820D-01 0.918D+00
 Coeff:     -0.122D-01 0.161D-01-0.522D-02 0.367D-02 0.226D-01 0.829D-01
 Coeff:      0.227D+00 0.666D+00
 Gap=     0.083 Goal=   None    Shift=    0.000
 RMSDP=1.52D-04 MaxDP=1.66D-02 DE=-8.23D-02 OVMax= 2.15D-02

 Cycle   9  Pass 1  IDiag  1:
 RMSU=  1.11D-04    CP:  9.57D-01  2.11D-01  6.34D-01  2.35D-01  4.81D-01
                    CP:  5.20D-01  5.77D-01  8.42D-01
 E= -33442.9029858233     Delta-E=       -0.004970986301 Rises=F Damp=F
 DIIS: error= 4.93D-04 at cycle   9 NSaved=   9.
 NSaved= 9 IEnMin= 9 EnMin= -33442.9029858233     IErMin= 9 ErrMin= 4.93D-04
 ErrMax= 4.93D-04  0.00D+00 EMaxC= 1.00D-01 BMatC= 1.13D-03 BMatP= 6.77D-03
 IDIUse=3 WtCom= 9.95D-01 WtEn= 4.93D-03
 Coeff-Com: -0.950D-03 0.104D-02-0.269D-02 0.221D-02-0.106D-02 0.253D-01
 Coeff-Com:  0.116D+00 0.402D+00 0.459D+00
 Coeff-En:   0.000D+00 0.000D+00 0.000D+00 0.000D+00 0.000D+00 0.000D+00
 Coeff-En:   0.000D+00 0.634D-01 0.937D+00
 Coeff:     -0.945D-03 0.104D-02-0.268D-02 0.220D-02-0.105D-02 0.252D-01
 Coeff:      0.115D+00 0.400D+00 0.461D+00
 Gap=     0.083 Goal=   None    Shift=    0.000
 RMSDP=6.46D-05 MaxDP=6.51D-03 DE=-4.97D-03 OVMax= 8.74D-03

 Error on total polarization charges =  0.02655
 SCF Done:  E(RPBE-PBE) =  -33442.9029858     A.U. after    9 cycles
            NFock=  9  Conv=0.65D-04     -V/T= 2.0152
 KE= 3.294144243454D+04 PE=-1.051826140001D+05 EE= 2.577130214888D+04
 Leave Link  502 at Sat Aug 24 09:11:24 2019, MaxMem=   939524096 cpu:     23950.4
 (Enter /scr/programas/g09/l801.exe)
 Range of M.O.s used for correlation:     1  1458
 NBasis=  1458 NAE=   240 NBE=   240 NFC=     0 NFV=     0
 NROrb=   1458 NOA=   240 NOB=   240 NVA=  1218 NVB=  1218

 **** Warning!!: The largest alpha MO coefficient is  0.66826462D+02


 **** Warning!!: The smallest alpha delta epsilon is  0.82758436D-01

 Leave Link  801 at Sat Aug 24 09:11:24 2019, MaxMem=   939524096 cpu:         0.2
 (Enter /scr/programas/g09/l1002.exe)
 Minotr:  Closed shell wavefunction.
 NEqPCM:  Using equilibrium solvation (IEInf=0, Eps=   8.9300, EpsInf=   2.0283)
          Direct CPHF calculation.
          Differentiating once with respect to magnetic field using GIAOs.
          Electric field/nuclear overlap derivatives assumed to be zero.
          Requested convergence is 1.0D-08 RMS, and 1.0D-07 maximum.
          Secondary convergence is 1.0D-12 RMS, and 1.0D-12 maximum.
          NewPWx=T KeepS1=F KeepF1=F KeepIn=T MapXYZ=F SortEE=F KeepMc=T.
          MDV=     939522146 using IRadAn=       2.
 Defaulting to unpruned grid for atomic number  50.
 Defaulting to unpruned grid for atomic number  78.
 Generate precomputed XC quadrature information.
          Solving linear equations simultaneously, MaxMat=      72.
 FoFJK:  IHMeth= 1 ICntrl=    6127 DoSepK=F KAlg= 0 I1Cent=   0 FoldK=F
 IRaf=         1 NMat=   1 IRICut=       1 DoRegI=T DoRafI=F ISym2E= 0.
 Defaulting to unpruned grid for atomic number  78.
 Defaulting to unpruned grid for atomic number  78.
 Defaulting to unpruned grid for atomic number  78.
 Defaulting to unpruned grid for atomic number  78.
          There are     3 degrees of freedom in the 1st order CPHF.  IDoFFX=0 NUNeed=     3.
      3 vectors produced by pass  0 Test12= 9.74D-12 3.33D-08 XBig12= 7.64D+02 3.70D+00.
 AX will form     3 AO Fock derivatives at one time.
 InvSVY:  IOpt=1 It=  1 EMax= 0.00D+00
 Solved reduced A of dimension     3 with     3 vectors.
 Calculating GIAO nuclear magnetic shielding tensors.
 SCF GIAO Magnetic shielding tensor (ppm):
      1  P    Isotropic =   258.9189   Anisotropy =    59.5660
   XX=   291.0245   YX=   -29.7250   ZX=    -3.3730
   XY=     1.7787   YY=   245.3630   ZY=     5.2837
   XZ=   -25.0760   YZ=     1.5537   ZZ=   240.3692
   Eigenvalues:   236.6381   241.4892   298.6296
      2  P    Isotropic =   279.1998   Anisotropy =    79.3007
   XX=   276.8293   YX=   -48.8807   ZX=   -25.2162
   XY=    -2.0153   YY=   250.8075   ZY=     3.4335
   XZ=   -29.7650   YZ=    19.6385   ZZ=   309.9625
   Eigenvalues:   234.8984   270.6341   332.0669
      3  C    Isotropic =    36.7580   Anisotropy =   120.6570
   XX=   111.2287   YX=   -25.1244   ZX=     1.4207
   XY=    -9.3820   YY=    -8.5235   ZY=   -40.5478
   XZ=    20.9992   YZ=   -58.5411   ZZ=     7.5689
   Eigenvalues:   -50.8892    43.9672   117.1961
      4  C    Isotropic =    16.7228   Anisotropy =   139.8120
   XX=    89.0785   YX=   -45.0310   ZX=    29.2234
   XY=   -22.8962   YY=   -49.6854   ZY=   -32.9007
   XZ=    22.1747   YZ=   -51.1727   ZZ=    10.7752
   Eigenvalues:   -73.5349    13.7724   109.9308
      5  C    Isotropic =    14.9747   Anisotropy =   149.0700
   XX=    95.0827   YX=   -11.7666   ZX=    51.1526
   XY=    -6.0914   YY=   -21.0678   ZY=   -55.8194
   XZ=    39.1006   YZ=   -43.2171   ZZ=   -29.0909
   Eigenvalues:   -79.3243     9.8936   114.3547
      6  C    Isotropic =    48.0754   Anisotropy =   116.4550
   XX=   119.6642   YX=    20.2786   ZX=    29.1932
   XY=    -5.0768   YY=     6.7163   ZY=   -56.6379
   XZ=    21.5045   YZ=   -33.7182   ZZ=    17.8458
   Eigenvalues:   -36.5194    55.0335   125.7121
      7  C    Isotropic =   163.1519   Anisotropy =    28.5750
   XX=   161.9434   YX=     5.9859   ZX=     2.5522
   XY=     8.2928   YY=   177.2713   ZY=   -11.0409
   XZ=     0.9535   YZ=    -7.7224   ZZ=   150.2411
   Eigenvalues:   146.3033   160.9506   182.2019
      8  C    Isotropic =   162.5467   Anisotropy =    32.5309
   XX=   160.2314   YX=     2.6573   ZX=    -7.9098
   XY=    -1.7816   YY=   145.4798   ZY=    -1.2457
   XZ=    -6.4635   YZ=    -3.3665   ZZ=   181.9289
   Eigenvalues:   145.3344   158.0717   184.2340
      9  C    Isotropic =    42.8863   Anisotropy =   101.9838
   XX=   108.0091   YX=    15.3941   ZX=    22.8803
   XY=     7.4258   YY=    45.0655   ZY=   -33.5661
   XZ=     6.9221   YZ=   -16.3839   ZZ=   -24.4156
   Eigenvalues:   -34.6596    52.4431   110.8755
     10  C    Isotropic =    17.4335   Anisotropy =   198.0512
   XX=   118.1955   YX=   -29.1307   ZX=    53.3446
   XY=   -40.2714   YY=    -1.4601   ZY=   -67.5402
   XZ=    55.2795   YZ=   -43.8125   ZZ=   -64.4350
   Eigenvalues:  -101.3591     4.1920   149.4676
     11  C    Isotropic =    19.0717   Anisotropy =   152.4599
   XX=    96.4894   YX=   -48.5620   ZX=    24.8972
   XY=   -41.8169   YY=   -35.0895   ZY=   -41.2500
   XZ=    17.2770   YZ=   -54.6194   ZZ=    -4.1848
   Eigenvalues:   -73.8242    10.3276   120.7116
     12  C    Isotropic =    40.9021   Anisotropy =   124.3322
   XX=   111.7977   YX=   -28.3371   ZX=     2.1431
   XY=   -27.5562   YY=    17.7865   ZY=   -31.7333
   XZ=    18.1480   YZ=   -62.2704   ZZ=    -6.8780
   Eigenvalues:   -43.6931    42.6091   123.7902
     13  C    Isotropic =   162.9144   Anisotropy =    35.5727
   XX=   160.3042   YX=     1.0421   ZX=    -9.6970
   XY=     1.0238   YY=   149.9502   ZY=    -5.3845
   XZ=   -17.5850   YZ=    -6.0818   ZZ=   178.4886
   Eigenvalues:   148.4246   153.6890   186.6295
     14  C    Isotropic =   161.3343   Anisotropy =    28.5168
   XX=   163.1360   YX=     6.5096   ZX=    -2.1834
   XY=     5.1263   YY=   178.3712   ZY=    -0.9459
   XZ=     4.0218   YZ=    -0.7356   ZZ=   142.4957
   Eigenvalues:   142.4198   161.2377   180.3455
     15  H    Isotropic =    23.7922   Anisotropy =     9.9649
   XX=    28.2029   YX=     1.9981   ZX=    -3.9447
   XY=     2.1522   YY=    23.2877   ZY=    -2.0742
   XZ=    -3.5491   YZ=    -0.3917   ZZ=    19.8860
   Eigenvalues:    18.4091    22.5321    30.4355
     16  H    Isotropic =    24.6135   Anisotropy =    10.5986
   XX=    24.6729   YX=     3.6742   ZX=    -4.3255
   XY=     1.8152   YY=    24.1083   ZY=    -2.4538
   XZ=    -4.8618   YZ=    -3.6298   ZZ=    25.0593
   Eigenvalues:    20.2608    21.9004    31.6792
     17  H    Isotropic =    28.8598   Anisotropy =    10.0506
   XX=    32.2140   YX=     2.9851   ZX=    -4.6262
   XY=     3.3355   YY=    28.0200   ZY=    -0.9831
   XZ=    -3.8794   YZ=     0.6844   ZZ=    26.3453
   Eigenvalues:    23.6217    27.3974    35.5602
     18  H    Isotropic =    28.9769   Anisotropy =     7.2017
   XX=    26.7125   YX=     3.6960   ZX=    -1.1655
   XY=     3.6284   YY=    31.5541   ZY=     2.5897
   XZ=    -1.3942   YZ=     1.2593   ZZ=    28.6641
   Eigenvalues:    23.8562    29.2964    33.7781
     19  H    Isotropic =    29.2620   Anisotropy =     7.1208
   XX=    27.6175   YX=    -1.6549   ZX=     1.1242
   XY=    -0.3082   YY=    30.2258   ZY=    -4.2894
   XZ=    -0.5227   YZ=    -3.2918   ZZ=    29.9427
   Eigenvalues:    26.1341    27.6426    34.0092
     20  H    Isotropic =    29.0941   Anisotropy =     7.1460
   XX=    24.9663   YX=    -0.8644   ZX=    -0.4924
   XY=     0.0231   YY=    30.7908   ZY=    -1.6917
   XZ=    -1.3025   YZ=    -3.6212   ZZ=    31.5253
   Eigenvalues:    24.7293    28.6949    33.8581
     21  H    Isotropic =    29.1397   Anisotropy =     6.4857
   XX=    25.7219   YX=     2.2226   ZX=    -1.6350
   XY=     2.1855   YY=    29.2316   ZY=     0.7480
   XZ=    -2.2376   YZ=     3.0758   ZZ=    32.4656
   Eigenvalues:    23.8768    30.0789    33.4635
     22  H    Isotropic =    28.7611   Anisotropy =    10.8471
   XX=    34.0891   YX=     1.5066   ZX=    -4.2350
   XY=     0.5754   YY=    25.2671   ZY=     0.1667
   XZ=    -3.8310   YZ=    -0.3526   ZZ=    26.9271
   Eigenvalues:    24.8035    25.4872    35.9925
     23  H    Isotropic =    23.1137   Anisotropy =    10.8543
   XX=    21.4099   YX=     3.1688   ZX=    -3.1475
   XY=     3.0048   YY=    23.8901   ZY=    -0.6890
   XZ=    -8.7562   YZ=    -2.3158   ZZ=    24.0413
   Eigenvalues:    16.3142    22.6771    30.3499
     24  H    Isotropic =    23.8142   Anisotropy =     7.5734
   XX=    27.8090   YX=     2.5857   ZX=    -2.4802
   XY=     1.4116   YY=    24.2129   ZY=     0.1575
   XZ=    -0.4625   YZ=     0.3795   ZZ=    19.4207
   Eigenvalues:    19.0936    23.4860    28.8631
     25  H    Isotropic =    28.6400   Anisotropy =     9.4169
   XX=    30.0739   YX=     5.2227   ZX=    -3.5793
   XY=     3.6168   YY=    28.1356   ZY=     0.7721
   XZ=    -4.3272   YZ=    -0.1755   ZZ=    27.7105
   Eigenvalues:    22.8030    28.1990    34.9179
     26  H    Isotropic =    28.4307   Anisotropy =     7.9598
   XX=    25.5976   YX=    -0.7812   ZX=    -5.1467
   XY=     0.5298   YY=    29.3200   ZY=     0.2236
   XZ=    -4.6370   YZ=     2.3578   ZZ=    30.3746
   Eigenvalues:    22.4926    29.0623    33.7373
     27  H    Isotropic =    29.0679   Anisotropy =     7.3448
   XX=    27.7655   YX=    -1.6964   ZX=     1.5463
   XY=    -1.1230   YY=    27.8288   ZY=    -3.5005
   XZ=    -0.1407   YZ=    -3.4548   ZZ=    31.6096
   Eigenvalues:    25.4202    27.8191    33.9645
     28  H    Isotropic =    28.6905   Anisotropy =    11.1015
   XX=    33.5663   YX=     4.0331   ZX=    -3.9822
   XY=     3.6248   YY=    27.6749   ZY=    -0.3907
   XZ=    -2.0936   YZ=     0.6905   ZZ=    24.8302
   Eigenvalues:    23.3517    26.6282    36.0915
     29  H    Isotropic =    29.2307   Anisotropy =     6.5563
   XX=    27.3914   YX=    -0.6206   ZX=     0.7905
   XY=     0.3145   YY=    30.8112   ZY=    -4.2142
   XZ=    -1.0433   YZ=    -2.5600   ZZ=    29.4895
   Eigenvalues:    26.6483    27.4423    33.6015
     30  H    Isotropic =    29.2015   Anisotropy =     6.5961
   XX=    27.2387   YX=     3.4662   ZX=    -1.2614
   XY=     3.1559   YY=    31.0930   ZY=     3.0799
   XZ=    -0.6675   YZ=     1.5405   ZZ=    29.2729
   Eigenvalues:    24.4640    29.5416    33.5989
     31  Pt   Isotropic =  3605.7838   Anisotropy =  1287.4292
   XX=  4398.1778   YX=   313.6041   ZX=   395.6799
   XY=   157.6594   YY=  3272.1251   ZY=  -156.8053
   XZ=   -73.1401   YZ=   138.6230   ZZ=  3147.0486
   Eigenvalues:  3113.8014  3239.4801  4464.0699
     32  Sn   Isotropic =  2129.9374   Anisotropy =   708.4737
   XX=  2018.8910   YX=   -64.8484   ZX=   -63.0521
   XY=   -94.2838   YY=  2544.9884   ZY=   182.5695
   XZ=   -42.0225   YZ=   181.5774   ZZ=  1825.9328
   Eigenvalues:  1777.8540  2009.7050  2602.2532
     33  Cl   Isotropic =   740.7918   Anisotropy =   290.0290
   XX=   887.1475   YX=   -95.0964   ZX=   -49.9074
   XY=  -103.5075   YY=   655.1736   ZY=     5.5105
   XZ=   -58.4337   YZ=    -4.1866   ZZ=   680.0542
   Eigenvalues:   612.8651   675.3658   934.1444
     34  Cl   Isotropic =   760.0075   Anisotropy =   314.8378
   XX=   696.1307   YX=    40.7514   ZX=   -36.8427
   XY=    57.5554   YY=   820.2793   ZY=  -160.0038
   XZ=     7.6308   YZ=  -174.9538   ZZ=   763.6124
   Eigenvalues:   616.3245   693.7986   969.8994
     35  Cl   Isotropic =   722.3999   Anisotropy =   341.3248
   XX=   701.7677   YX=    62.6138   ZX=    68.2442
   XY=    74.1091   YY=   629.7779   ZY=   137.0817
   XZ=    60.2040   YZ=   170.6632   ZZ=   835.6541
   Eigenvalues:   541.1264   676.1235   949.9498
     36  Sn   Isotropic =  2130.6343   Anisotropy =   700.7027
   XX=  2016.2572   YX=   -59.2985   ZX=   -60.2860
   XY=   -79.4817   YY=  2519.5670   ZY=   224.3683
   XZ=   -43.4947   YZ=   217.2829   ZZ=  1856.0787
   Eigenvalues:  1785.3712  2008.7623  2597.7694
     37  Cl   Isotropic =   756.2131   Anisotropy =   325.0177
   XX=   691.6924   YX=    11.7482   ZX=    -6.6424
   XY=    22.7601   YY=   850.6396   ZY=  -166.5000
   XZ=    14.1783   YZ=  -179.6688   ZZ=   726.3074
   Eigenvalues:   602.6548   693.0930   972.8916
     38  Cl   Isotropic =   745.2435   Anisotropy =   295.6130
   XX=   858.6123   YX=   -61.2839   ZX=  -106.7076
   XY=   -86.4821   YY=   653.5563   ZY=    27.4661
   XZ=  -123.7051   YZ=     1.1710   ZZ=   723.5620
   Eigenvalues:   620.7875   672.6242   942.3189
     39  Cl   Isotropic =   722.2543   Anisotropy =   334.7287
   XX=   732.3329   YX=    93.7939   ZX=    97.4039
   XY=   103.1548   YY=   631.5881   ZY=   109.2746
   XZ=    87.8973   YZ=   136.3984   ZZ=   802.8418
   Eigenvalues:   552.1074   669.2487   945.4067
     40  C    Isotropic =    45.3740   Anisotropy =   172.5373
   XX=    55.5882   YX=    73.3341   ZX=   -24.1113
   XY=    88.1183   YY=    95.3046   ZY=    40.3161
   XZ=   -22.0961   YZ=    39.8300   ZZ=   -14.7708
   Eigenvalues:   -55.0418    30.7649   160.3989
     41  C    Isotropic =    44.1323   Anisotropy =   179.2635
   XX=    16.4313   YX=   100.7130   ZX=    38.5164
   XY=    99.7285   YY=    90.2587   ZY=     6.2562
   XZ=    35.8866   YZ=    -5.4421   ZZ=    25.7069
   Eigenvalues:   -63.9311    32.6867   163.6413
     42  C    Isotropic =    40.3543   Anisotropy =   157.9008
   XX=    69.6523   YX=    50.8735   ZX=    34.4769
   XY=    59.5943   YY=   100.0609   ZY=    18.3765
   XZ=    30.4354   YZ=    -3.1336   ZZ=   -48.6504
   Eigenvalues:   -57.2674    32.7088   145.6215
     43  C    Isotropic =    48.7979   Anisotropy =   176.9604
   XX=    72.3660   YX=    59.0231   ZX=    26.7674
   XY=    60.5316   YY=   123.8463   ZY=     8.0794
   XZ=    36.8890   YZ=    16.2543   ZZ=   -49.8185
   Eigenvalues:   -57.6496    37.2720   166.7715
     44  H    Isotropic =    23.5651   Anisotropy =    13.6848
   XX=    21.6202   YX=    -1.4502   ZX=     5.4444
   XY=    -2.0774   YY=    19.8546   ZY=    -3.2840
   XZ=     5.0849   YZ=    -1.9939   ZZ=    29.2205
   Eigenvalues:    18.6374    19.3696    32.6883
     45  C    Isotropic =    47.3544   Anisotropy =   175.1104
   XX=    16.3882   YX=    99.8753   ZX=    33.7742
   XY=    90.0383   YY=   100.4544   ZY=    -0.7903
   XZ=    32.0751   YZ=    -4.5935   ZZ=    25.2205
   Eigenvalues:   -55.9721    33.9406   164.0946
     46  H    Isotropic =    23.8622   Anisotropy =    11.1667
   XX=    28.2135   YX=    -4.3221   ZX=     1.9201
   XY=    -4.1717   YY=    23.9925   ZY=     0.7489
   XZ=     2.6081   YZ=    -2.3370   ZZ=    19.3805
   Eigenvalues:    18.8187    21.4612    31.3066
     47  C    Isotropic =    44.7382   Anisotropy =   179.1395
   XX=    40.3047   YX=    95.4568   ZX=   -27.9715
   XY=    75.9293   YY=   102.3513   ZY=    30.7541
   XZ=   -23.4371   YZ=    45.9245   ZZ=    -8.4415
   Eigenvalues:   -58.1076    28.1577   164.1645
     48  H    Isotropic =    24.0493   Anisotropy =     7.3145
   XX=    25.2402   YX=    -2.7488   ZX=     2.6483
   XY=    -3.0284   YY=    22.6537   ZY=    -1.2429
   XZ=     2.4587   YZ=    -1.5755   ZZ=    24.2539
   Eigenvalues:    20.7624    22.4598    28.9256
     49  H    Isotropic =    24.0942   Anisotropy =     6.0786
   XX=    24.5142   YX=    -1.9806   ZX=     1.8313
   XY=    -1.8203   YY=    22.1119   ZY=    -1.5336
   XZ=     1.9576   YZ=    -1.9873   ZZ=    25.6566
   Eigenvalues:    20.9471    23.1890    28.1466
     50  H    Isotropic =    24.0559   Anisotropy =     3.1711
   XX=    24.6699   YX=    -1.9908   ZX=    -0.5944
   XY=    -1.9800   YY=    22.2064   ZY=     0.1216
   XZ=    -0.4966   YZ=     0.3409   ZZ=    25.2912
   Eigenvalues:    21.1008    24.8969    26.1699
     51  C    Isotropic =    55.1628   Anisotropy =   152.9543
   XX=    23.4376   YX=    21.8006   ZX=   -42.8378
   XY=     4.3123   YY=   116.0474   ZY=    67.0988
   XZ=    -9.8286   YZ=    79.6600   ZZ=    26.0033
   Eigenvalues:   -30.9213    39.2773   157.1323
     52  C    Isotropic =    79.7405   Anisotropy =   236.0527
   XX=    26.8787   YX=   -27.4711   ZX=    26.3131
   XY=   -15.4509   YY=   166.3771   ZY=   116.1755
   XZ=    14.6390   YZ=   115.7283   ZZ=    45.9657
   Eigenvalues:   -37.3047    39.4172   237.1090
     53  C    Isotropic =    32.4050   Anisotropy =   166.9924
   XX=   -68.4489   YX=   -15.5848   ZX=    13.0474
   XY=   -18.6104   YY=   107.2973   ZY=    58.1544
   XZ=    13.6409   YZ=    52.8700   ZZ=    58.3667
   Eigenvalues:   -73.0959    26.5777   143.7333
     54  C    Isotropic =    50.4723   Anisotropy =   165.3129
   XX=   -43.5829   YX=   -11.7862   ZX=     6.0058
   XY=   -11.0034   YY=   126.0181   ZY=    57.4723
   XZ=   -14.1562   YZ=    53.7422   ZZ=    68.9819
   Eigenvalues:   -44.3464    35.0825   160.6810
     55  H    Isotropic =    25.4538   Anisotropy =    11.4786
   XX=    31.3957   YX=    -1.9168   ZX=     3.7990
   XY=    -1.6382   YY=    22.8166   ZY=     0.2039
   XZ=     4.1295   YZ=     0.3048   ZZ=    22.1490
   Eigenvalues:    20.3583    22.8968    33.1062
     56  C    Isotropic =    29.3290   Anisotropy =   156.8366
   XX=    12.2269   YX=   -23.9518   ZX=    31.9871
   XY=   -22.9357   YY=    83.8289   ZY=    81.0091
   XZ=    28.3427   YZ=    87.1295   ZZ=    -8.0690
   Eigenvalues:   -74.5115    28.6116   133.8867
     57  H    Isotropic =    24.3503   Anisotropy =    14.1599
   XX=    21.0904   YX=    -2.3470   ZX=     6.6171
   XY=    -1.6911   YY=    22.8422   ZY=    -2.9069
   XZ=     6.4717   YZ=    -2.4443   ZZ=    29.1184
   Eigenvalues:    17.3835    21.8773    33.7903
     58  C    Isotropic =    33.8653   Anisotropy =   178.8577
   XX=     0.2423   YX=    13.5185   ZX=   -32.7638
   XY=    15.6425   YY=   104.8390   ZY=    81.7756
   XZ=   -50.0083   YZ=    91.2224   ZZ=    -3.4853
   Eigenvalues:   -76.0087    24.5008   153.1038
     59  H    Isotropic =    24.3514   Anisotropy =     4.9854
   XX=    25.2406   YX=    -0.8350   ZX=     2.1319
   XY=    -0.6467   YY=    22.7575   ZY=    -2.0152
   XZ=     1.4663   YZ=    -1.8090   ZZ=    25.0561
   Eigenvalues:    21.6548    23.7244    27.6750
     60  H    Isotropic =    22.1598   Anisotropy =    10.7868
   XX=    26.0560   YX=    -1.1890   ZX=     3.8215
   XY=    -1.1260   YY=    17.2872   ZY=    -3.8154
   XZ=     3.5714   YZ=    -3.4075   ZZ=    23.1364
   Eigenvalues:    15.5313    21.5972    29.3511
     61  H    Isotropic =    22.3598   Anisotropy =     5.9490
   XX=    26.2447   YX=     0.7009   ZX=     0.2485
   XY=     0.6887   YY=    18.2846   ZY=    -3.5329
   XZ=    -0.1084   YZ=    -3.2396   ZZ=    22.5500
   Eigenvalues:    16.3736    24.3799    26.3258
 End of Minotr F.D. properties file   721 does not exist.
 End of Minotr F.D. properties file   722 does not exist.
 End of Minotr F.D. properties file   788 does not exist.
 Leave Link 1002 at Sat Aug 24 13:27:46 2019, MaxMem=   939524096 cpu:     60998.5
 (Enter /scr/programas/g09/l601.exe)
 Copying SCF densities to generalized density rwf, IOpCl= 0 IROHF=0.

 **********************************************************************

            Population analysis using the SCF density.

 **********************************************************************

 Orbital symmetries:
       Occupied  (A) (A) (A) (A) (A) (A) (A) (A) (A) (A) (A) (A)
                 (A) (A) (A) (A) (A) (A) (A) (A) (A) (A) (A) (A)
                 (A) (A) (A) (A) (A) (A) (A) (A) (A) (A) (A) (A)
                 (A) (A) (A) (A) (A) (A) (A) (A) (A) (A) (A) (A)
                 (A) (A) (A) (A) (A) (A) (A) (A) (A) (A) (A) (A)
                 (A) (A) (A) (A) (A) (A) (A) (A) (A) (A) (A) (A)
                 (A) (A) (A) (A) (A) (A) (A) (A) (A) (A) (A) (A)
                 (A) (A) (A) (A) (A) (A) (A) (A) (A) (A) (A) (A)
                 (A) (A) (A) (A) (A) (A) (A) (A) (A) (A) (A) (A)
                 (A) (A) (A) (A) (A) (A) (A) (A) (A) (A) (A) (A)
                 (A) (A) (A) (A) (A) (A) (A) (A) (A) (A) (A) (A)
                 (A) (A) (A) (A) (A) (A) (A) (A) (A) (A) (A) (A)
                 (A) (A) (A) (A) (A) (A) (A) (A) (A) (A) (A) (A)
                 (A) (A) (A) (A) (A) (A) (A) (A) (A) (A) (A) (A)
                 (A) (A) (A) (A) (A) (A) (A) (A) (A) (A) (A) (A)
                 (A) (A) (A) (A) (A) (A) (A) (A) (A) (A) (A) (A)
                 (A) (A) (A) (A) (A) (A) (A) (A) (A) (A) (A) (A)
                 (A) (A) (A) (A) (A) (A) (A) (A) (A) (A) (A) (A)
                 (A) (A) (A) (A) (A) (A) (A) (A) (A) (A) (A) (A)
                 (A) (A) (A) (A) (A) (A) (A) (A) (A) (A) (A) (A)
       Virtual   (A) (A) (A) (A) (A) (A) (A) (A) (A) (A) (A) (A)
                 (A) (A) (A) (A) (A) (A) (A) (A) (A) (A) (A) (A)
                 (A) (A) (A) (A) (A) (A) (A) (A) (A) (A) (A) (A)
                 (A) (A) (A) (A) (A) (A) (A) (A) (A) (A) (A) (A)
                 (A) (A) (A) (A) (A) (A) (A) (A) (A) (A) (A) (A)
                 (A) (A) (A) (A) (A) (A) (A) (A) (A) (A) (A) (A)
                 (A) (A) (A) (A) (A) (A) (A) (A) (A) (A) (A) (A)
                 (A) (A) (A) (A) (A) (A) (A) (A) (A) (A) (A) (A)
                 (A) (A) (A) (A) (A) (A) (A) (A) (A) (A) (A) (A)
                 (A) (A) (A) (A) (A) (A) (A) (A) (A) (A) (A) (A)
                 (A) (A) (A) (A) (A) (A) (A) (A) (A) (A) (A) (A)
                 (A) (A) (A) (A) (A) (A) (A) (A) (A) (A) (A) (A)
                 (A) (A) (A) (A) (A) (A) (A) (A) (A) (A) (A) (A)
                 (A) (A) (A) (A) (A) (A) (A) (A) (A) (A) (A) (A)
                 (A) (A) (A) (A) (A) (A) (A) (A) (A) (A) (A) (A)
                 (A) (A) (A) (A) (A) (A) (A) (A) (A) (A) (A) (A)
                 (A) (A) (A) (A) (A) (A) (A) (A) (A) (A) (A) (A)
                 (A) (A) (A) (A) (A) (A) (A) (A) (A) (A) (A) (A)
                 (A) (A) (A) (A) (A) (A) (A) (A) (A) (A) (A) (A)
                 (A) (A) (A) (A) (A) (A) (A) (A) (A) (A) (A) (A)
                 (A) (A) (A) (A) (A) (A) (A) (A) (A) (A) (A) (A)
                 (A) (A) (A) (A) (A) (A) (A) (A) (A) (A) (A) (A)
                 (A) (A) (A) (A) (A) (A) (A) (A) (A) (A) (A) (A)
                 (A) (A) (A) (A) (A) (A) (A) (A) (A) (A) (A) (A)
                 (A) (A) (A) (A) (A) (A) (A) (A) (A) (A) (A) (A)
                 (A) (A) (A) (A) (A) (A) (A) (A) (A) (A) (A) (A)
                 (A) (A) (A) (A) (A) (A) (A) (A) (A) (A) (A) (A)
                 (A) (A) (A) (A) (A) (A) (A) (A) (A) (A) (A) (A)
                 (A) (A) (A) (A) (A) (A) (A) (A) (A) (A) (A) (A)
                 (A) (A) (A) (A) (A) (A) (A) (A) (A) (A) (A) (A)
                 (A) (A) (A) (A) (A) (A) (A) (A) (A) (A) (A) (A)
                 (A) (A) (A) (A) (A) (A) (A) (A) (A) (A) (A) (A)
                 (A) (A) (A) (A) (A) (A) (A) (A) (A) (A) (A) (A)
                 (A) (A) (A) (A) (A) (A) (A) (A) (A) (A) (A) (A)
                 (A) (A) (A) (A) (A) (A) (A) (A) (A) (A) (A) (A)
                 (A) (A) (A) (A) (A) (A) (A) (A) (A) (A) (A) (A)
                 (A) (A) (A) (A) (A) (A) (A) (A) (A) (A) (A) (A)
                 (A) (A) (A) (A) (A) (A) (A) (A) (A) (A) (A) (A)
                 (A) (A) (A) (A) (A) (A) (A) (A) (A) (A) (A) (A)
                 (A) (A) (A) (A) (A) (A) (A) (A) (A) (A) (A) (A)
                 (A) (A) (A) (A) (A) (A) (A) (A) (A) (A) (A) (A)
                 (A) (A) (A) (A) (A) (A) (A) (A) (A) (A) (A) (A)
                 (A) (A) (A) (A) (A) (A) (A) (A) (A) (A) (A) (A)
                 (A) (A) (A) (A) (A) (A) (A) (A) (A) (A) (A) (A)
                 (A) (A) (A) (A) (A) (A) (A) (A) (A) (A) (A) (A)
                 (A) (A) (A) (A) (A) (A) (A) (A) (A) (A) (A) (A)
                 (A) (A) (A) (A) (A) (A) (A) (A) (A) (A) (A) (A)
                 (A) (A) (A) (A) (A) (A) (A) (A) (A) (A) (A) (A)
                 (A) (A) (A) (A) (A) (A) (A) (A) (A) (A) (A) (A)
                 (A) (A) (A) (A) (A) (A) (A) (A) (A) (A) (A) (A)
                 (A) (A) (A) (A) (A) (A) (A) (A) (A) (A) (A) (A)
                 (A) (A) (A) (A) (A) (A) (A) (A) (A) (A) (A) (A)
                 (A) (A) (A) (A) (A) (A) (A) (A) (A) (A) (A) (A)
                 (A) (A) (A) (A) (A) (A) (A) (A) (A) (A) (A) (A)
                 (A) (A) (A) (A) (A) (A) (A) (A) (A) (A) (A) (A)
                 (A) (A) (A) (A) (A) (A) (A) (A) (A) (A) (A) (A)
                 (A) (A) (A) (A) (A) (A) (A) (A) (A) (A) (A) (A)
                 (A) (A) (A) (A) (A) (A) (A) (A) (A) (A) (A) (A)
                 (A) (A) (A) (A) (A) (A) (A) (A) (A) (A) (A) (A)
                 (A) (A) (A) (A) (A) (A) (A) (A) (A) (A) (A) (A)
                 (A) (A) (A) (A) (A) (A) (A) (A) (A) (A) (A) (A)
                 (A) (A) (A) (A) (A) (A) (A) (A) (A) (A) (A) (A)
                 (A) (A) (A) (A) (A) (A) (A) (A) (A) (A) (A) (A)
                 (A) (A) (A) (A) (A) (A) (A) (A) (A) (A) (A) (A)
                 (A) (A) (A) (A) (A) (A) (A) (A) (A) (A) (A) (A)
                 (A) (A) (A) (A) (A) (A) (A) (A) (A) (A) (A) (A)
                 (A) (A) (A) (A) (A) (A) (A) (A) (A) (A) (A) (A)
                 (A) (A) (A) (A) (A) (A) (A) (A) (A) (A) (A) (A)
                 (A) (A) (A) (A) (A) (A) (A) (A) (A) (A) (A) (A)
                 (A) (A) (A) (A) (A) (A) (A) (A) (A) (A) (A) (A)
                 (A) (A) (A) (A) (A) (A) (A) (A) (A) (A) (A) (A)
                 (A) (A) (A) (A) (A) (A) (A) (A) (A) (A) (A) (A)
                 (A) (A) (A) (A) (A) (A) (A) (A) (A) (A) (A) (A)
                 (A) (A) (A) (A) (A) (A) (A) (A) (A) (A) (A) (A)
                 (A) (A) (A) (A) (A) (A) (A) (A) (A) (A) (A) (A)
                 (A) (A) (A) (A) (A) (A) (A) (A) (A) (A) (A) (A)
                 (A) (A) (A) (A) (A) (A) (A) (A) (A) (A) (A) (A)
                 (A) (A) (A) (A) (A) (A) (A) (A) (A) (A) (A) (A)
                 (A) (A) (A) (A) (A) (A) (A) (A) (A) (A) (A) (A)
                 (A) (A) (A) (A) (A) (A) (A) (A) (A) (A) (A) (A)
                 (A) (A) (A) (A) (A) (A) (A) (A) (A) (A) (A) (A)
                 (A) (A) (A) (A) (A) (A) (A) (A) (A) (A) (A) (A)
                 (A) (A) (A) (A) (A) (A) (A) (A) (A) (A) (A) (A)
                 (A) (A) (A) (A) (A) (A) (A) (A) (A) (A) (A) (A)
                 (A) (A) (A) (A) (A) (A) (A) (A) (A) (A) (A) (A)
                 (A) (A) (A) (A) (A) (A) (A) (A) (A) (A) (A) (A)
                 (A) (A) (A) (A) (A) (A) (A) (A) (A) (A) (A) (A)
                 (A) (A) (A) (A) (A) (A) (A) (A) (A) (A) (A) (A)
                 (A) (A) (A) (A) (A) (A) (A) (A) (A) (A) (A) (A)
                 (A) (A) (A) (A) (A) (A) (A) (A) (A) (A) (A) (A)
                 (A) (A) (A) (A) (A) (A) (A) (A) (A) (A) (A) (A)
                 (A) (A) (A) (A) (A) (A) (A) (A) (A) (A) (A) (A)
                 (A) (A) (A) (A) (A) (A) (A) (A) (A) (A) (A) (A)
                 (A) (A) (A) (A) (A) (A) (A) (A) (A) (A) (A) (A)
                 (A) (A) (A) (A) (A) (A) (A) (A) (A) (A) (A) (A)
                 (A) (A) (A) (A) (A) (A) (A) (A) (A) (A) (A) (A)
                 (A) (A) (A) (A) (A) (A) (A) (A) (A) (A) (A) (A)
                 (A) (A) (A) (A) (A) (A) (A) (A) (A) (A) (A) (A)
                 (A) (A) (A) (A) (A) (A) (A) (A) (A) (A) (A) (A)
                 (A) (A) (A) (A) (A) (A) (A) (A) (A) (A) (A) (A)
                 (A) (A) (A) (A) (A) (A) (A) (A) (A) (A) (A) (A)
                 (A) (A) (A) (A) (A) (A)
 The electronic state is 1-A.
 Alpha  occ. eigenvalues -- ******************************-427.56286-414.89338
 Alpha  occ. eigenvalues -- -414.89275-414.89019-149.66993-149.66930-141.94805
 Alpha  occ. eigenvalues -- -141.94798-141.94741-141.94737-141.94734-141.94674
 Alpha  occ. eigenvalues -- -100.56808-100.56739-100.56688-100.56615-100.56607
 Alpha  occ. eigenvalues -- -100.56559 -99.94324 -92.10175 -92.10093 -92.09680
 Alpha  occ. eigenvalues --  -79.06062 -79.05964 -79.05730 -79.05688 -79.05617
 Alpha  occ. eigenvalues --  -76.32606 -76.32528 -28.83373 -28.83322 -25.18005
 Alpha  occ. eigenvalues --  -25.17986 -25.17953 -25.17935 -25.17791 -25.17739
 Alpha  occ. eigenvalues --  -20.85781 -17.72889 -17.72889 -17.72837 -17.72836
 Alpha  occ. eigenvalues --  -17.72757 -17.72746 -17.72709 -17.72704 -17.72694
 Alpha  occ. eigenvalues --  -17.72656 -17.42613 -17.42445 -17.41599 -11.60985
 Alpha  occ. eigenvalues --  -11.60636 -11.60152 -11.60077 -11.59920  -9.93459
 Alpha  occ. eigenvalues --   -9.93342  -9.93309  -9.93301  -9.93083  -9.92972
 Alpha  occ. eigenvalues --   -9.91819  -9.91735  -9.91571  -9.91457  -9.91243
 Alpha  occ. eigenvalues --   -9.91125  -9.91097  -9.91059  -9.91021  -9.90996
 Alpha  occ. eigenvalues --   -9.90970  -9.90948  -9.90926  -9.90786  -9.89943
 Alpha  occ. eigenvalues --   -9.89888  -9.89756  -9.89674  -9.14668  -9.14599
 Alpha  occ. eigenvalues --   -9.14546  -9.14489  -9.14484  -9.14431  -6.98465
 Alpha  occ. eigenvalues --   -6.98406  -6.98358  -6.98284  -6.98282  -6.98232
 Alpha  occ. eigenvalues --   -6.97859  -6.97839  -6.97782  -6.97765  -6.97734
 Alpha  occ. eigenvalues --   -6.97703  -6.97678  -6.97668  -6.97658  -6.97655
 Alpha  occ. eigenvalues --   -6.97613  -6.97603  -6.35625  -6.35589  -4.58130
 Alpha  occ. eigenvalues --   -4.58123  -4.58097  -4.58088  -4.57940  -4.57890
 Alpha  occ. eigenvalues --   -4.52095  -4.52064  -3.25531  -3.25500  -3.25492
 Alpha  occ. eigenvalues --   -3.25463  -3.25170  -3.25141  -3.15871  -3.15847
 Alpha  occ. eigenvalues --   -3.15367  -3.15119  -3.14935  -3.14866  -3.14801
 Alpha  occ. eigenvalues --   -2.88762  -1.83936  -1.83486  -1.81085  -1.04582
 Alpha  occ. eigenvalues --   -1.04577  -1.04564  -1.04555  -1.04215  -1.04197
 Alpha  occ. eigenvalues --   -1.04179  -1.04148  -1.04145  -1.04092  -0.80408
 Alpha  occ. eigenvalues --   -0.80357  -0.79291  -0.79262  -0.73413  -0.73385
 Alpha  occ. eigenvalues --   -0.71813  -0.71741  -0.71671  -0.71638  -0.70978
 Alpha  occ. eigenvalues --   -0.70889  -0.70190  -0.70169  -0.69323  -0.69263
 Alpha  occ. eigenvalues --   -0.67524  -0.67471  -0.61940  -0.61936  -0.59970
 Alpha  occ. eigenvalues --   -0.59647  -0.56205  -0.56131  -0.55035  -0.54989
 Alpha  occ. eigenvalues --   -0.51950  -0.51638  -0.47784  -0.47661  -0.46998
 Alpha  occ. eigenvalues --   -0.46920  -0.44626  -0.43860  -0.43578  -0.42890
 Alpha  occ. eigenvalues --   -0.42420  -0.42141  -0.41801  -0.41634  -0.40595
 Alpha  occ. eigenvalues --   -0.40159  -0.39975  -0.39681  -0.38819  -0.38815
 Alpha  occ. eigenvalues --   -0.38408  -0.37270  -0.37160  -0.36864  -0.36833
 Alpha  occ. eigenvalues --   -0.36680  -0.36527  -0.36249  -0.35593  -0.35296
 Alpha  occ. eigenvalues --   -0.34950  -0.34444  -0.33850  -0.33711  -0.33562
 Alpha  occ. eigenvalues --   -0.33408  -0.32692  -0.32488  -0.32354  -0.32231
 Alpha  occ. eigenvalues --   -0.32146  -0.31868  -0.31752  -0.31548  -0.30327
 Alpha  occ. eigenvalues --   -0.30044  -0.29704  -0.29027  -0.28803  -0.28632
 Alpha  occ. eigenvalues --   -0.28606  -0.28509  -0.28495  -0.28346  -0.28178
 Alpha  occ. eigenvalues --   -0.27450  -0.27301  -0.27152  -0.27148  -0.26886
 Alpha  occ. eigenvalues --   -0.26788  -0.25928  -0.25137  -0.24750  -0.24633
 Alpha  occ. eigenvalues --   -0.24384  -0.23549  -0.23314  -0.22021  -0.21693
 Alpha virt. eigenvalues --   -0.13417  -0.10605  -0.09437  -0.07779  -0.07438
 Alpha virt. eigenvalues --   -0.06910  -0.06195  -0.05863  -0.05004  -0.04700
 Alpha virt. eigenvalues --   -0.04250  -0.03532  -0.02930  -0.01862  -0.01643
 Alpha virt. eigenvalues --   -0.00983  -0.00740  -0.00221  -0.00117   0.00363
 Alpha virt. eigenvalues --    0.00503   0.00629   0.00804   0.01080   0.01289
 Alpha virt. eigenvalues --    0.01710   0.02082   0.02127   0.02461   0.02907
 Alpha virt. eigenvalues --    0.03123   0.03409   0.03671   0.03787   0.04124
 Alpha virt. eigenvalues --    0.04503   0.04523   0.04669   0.05067   0.05106
 Alpha virt. eigenvalues --    0.05179   0.05522   0.05885   0.05991   0.06153
 Alpha virt. eigenvalues --    0.06209   0.06429   0.06733   0.06868   0.07220
 Alpha virt. eigenvalues --    0.07359   0.07502   0.07735   0.07880   0.08091
 Alpha virt. eigenvalues --    0.08386   0.08538   0.08730   0.08898   0.09061
 Alpha virt. eigenvalues --    0.09240   0.09317   0.09722   0.09821   0.09915
 Alpha virt. eigenvalues --    0.10197   0.10273   0.10445   0.10566   0.10632
 Alpha virt. eigenvalues --    0.10811   0.11019   0.11349   0.11438   0.11560
 Alpha virt. eigenvalues --    0.11884   0.11983   0.12107   0.12412   0.12626
 Alpha virt. eigenvalues --    0.12689   0.12785   0.13050   0.13267   0.13396
[...]
 Alpha virt. eigenvalues --    0.74592   0.74926   0.75100   0.75231   0.75352
 Alpha virt. eigenvalues --    0.75526   0.75770   0.75967   0.76476   0.76564
 Alpha virt. eigenvalues --    0.76799   0.76956   0.77415   0.77472   0.77609
 Alpha virt. eigenvalues --    0.77731   0.77870   0.78293   0.78376   0.78626
 Alpha virt. eigenvalues --    0.78934   0.79136   0.79378   0.79536   0.79891
 Alpha virt. eigenvalues --    0.80003   0.80285   0.80465   0.80694   0.80925
 Alpha virt. eigenvalues --    0.81213   0.81372   0.81470   0.81756   0.82256
 Alpha virt. eigenvalues --    0.82611   0.82781   0.82968   0.83301   0.83378
 Alpha virt. eigenvalues --    0.83833   0.83998   0.84265   0.84890   0.84980
 Alpha virt. eigenvalues --    0.85243   0.85468   0.85956   0.86088   0.86202
 Alpha virt. eigenvalues --    0.86341   0.86525   0.86875   0.86992   0.87165
 Alpha virt. eigenvalues --    0.87520   0.87749   0.88042   0.88366   0.88748
 Alpha virt. eigenvalues --    0.89295   0.89317   0.89726   0.89996   0.90222
 Alpha virt. eigenvalues --    0.90849   0.91021   0.91287   0.91317   0.91636
 Alpha virt. eigenvalues --    0.92013   0.92285   0.92582   0.92848   0.93112
 Alpha virt. eigenvalues --    0.93489   0.93593   0.93901   0.94307   0.94507
 Alpha virt. eigenvalues --    0.94988   0.95173   0.95382   0.95710   0.95782
 Alpha virt. eigenvalues --    0.96398   0.96469   0.97064   0.97278   0.97321
 Alpha virt. eigenvalues --    0.97628   0.97883   0.98183   0.98565   0.98874
 Alpha virt. eigenvalues --    0.99101   0.99361   0.99478   0.99785   0.99912
 Alpha virt. eigenvalues --    1.00535   1.00744   1.00973   1.01194   1.01465
 Alpha virt. eigenvalues --    1.01837   1.02087   1.02270   1.02547   1.02950
 Alpha virt. eigenvalues --    1.03290   1.03449   1.03489   1.03864   1.04206
 Alpha virt. eigenvalues --    1.04320   1.04897   1.04984   1.05297   1.05581
 Alpha virt. eigenvalues --    1.05700   1.06032   1.06407   1.06461   1.06877
 Alpha virt. eigenvalues --    1.07041   1.07369   1.07636   1.07743   1.08144
 Alpha virt. eigenvalues --    1.08396   1.08843   1.09133   1.09552   1.09781
 Alpha virt. eigenvalues --    1.09963   1.10299   1.10771   1.11032   1.11129
 Alpha virt. eigenvalues --    1.11388   1.11638   1.11788   1.11980   1.12389
 Alpha virt. eigenvalues --    1.12570   1.12758   1.13183   1.13576   1.14039
 Alpha virt. eigenvalues --    1.14364   1.14608   1.14745   1.14909   1.14990
 Alpha virt. eigenvalues --    1.15398   1.15767   1.15823   1.16201   1.16409
 Alpha virt. eigenvalues --    1.16657   1.17162   1.17309   1.17376   1.17570
 Alpha virt. eigenvalues --    1.17738   1.18484   1.18662   1.19201   1.19430
 Alpha virt. eigenvalues --    1.19828   1.20080   1.20366   1.20769   1.21118
 Alpha virt. eigenvalues --    1.21451   1.21779   1.22326   1.22654   1.22764
 Alpha virt. eigenvalues --    1.23071   1.23550   1.24131   1.24359   1.24718
 Alpha virt. eigenvalues --    1.24746   1.25402   1.25993   1.26398   1.26875
 Alpha virt. eigenvalues --    1.27407   1.27895   1.28227   1.28623   1.28835
 Alpha virt. eigenvalues --    1.29298   1.29651   1.29904   1.30067   1.30478
 Alpha virt. eigenvalues --    1.30637   1.30978   1.31519   1.32052   1.32109
 Alpha virt. eigenvalues --    1.32695   1.33041   1.33844   1.33958   1.34451
 Alpha virt. eigenvalues --    1.34713   1.34806   1.35365   1.35547   1.35812
 Alpha virt. eigenvalues --    1.36085   1.37267   1.37515   1.37761   1.38385
 Alpha virt. eigenvalues --    1.38645   1.39224   1.39461   1.40102   1.40197
 Alpha virt. eigenvalues --    1.40565   1.40982   1.41903   1.42125   1.42571
 Alpha virt. eigenvalues --    1.42590   1.42912   1.43470   1.44070   1.44176
 Alpha virt. eigenvalues --    1.44755   1.45569   1.45680   1.46362   1.46808
 Alpha virt. eigenvalues --    1.47409   1.47776   1.48199   1.48724   1.48857
 Alpha virt. eigenvalues --    1.49724   1.50007   1.50538   1.50719   1.50972
 Alpha virt. eigenvalues --    1.51259   1.51717   1.52190   1.52358   1.53573
 Alpha virt. eigenvalues --    1.53727   1.54121   1.54351   1.55008   1.55862
 Alpha virt. eigenvalues --    1.55943   1.56672   1.57781   1.58065   1.58882
 Alpha virt. eigenvalues --    1.59439   1.59938   1.60666   1.61429   1.61854
 Alpha virt. eigenvalues --    1.62489   1.62886   1.63208   1.63688   1.64042
 Alpha virt. eigenvalues --    1.64395   1.64871   1.65309   1.65659   1.66317
 Alpha virt. eigenvalues --    1.66780   1.66818   1.67432   1.67765   1.67837
 Alpha virt. eigenvalues --    1.68369   1.68628   1.68849   1.69004   1.69467
 Alpha virt. eigenvalues --    1.69932   1.70051   1.70813   1.71274   1.71714
 Alpha virt. eigenvalues --    1.71880   1.72342   1.72674   1.73275   1.73697
 Alpha virt. eigenvalues --    1.74210   1.75451   1.75551   1.76139   1.76720
 Alpha virt. eigenvalues --    1.76982   1.78066   1.78298   1.78744   1.78902
 Alpha virt. eigenvalues --    1.79145   1.80207   1.80813   1.81098   1.81167
 Alpha virt. eigenvalues --    1.82348   1.83279   1.83609   1.83954   1.84477
 Alpha virt. eigenvalues --    1.85023   1.85878   1.86268   1.86592   1.87589
 Alpha virt. eigenvalues --    1.87849   1.88309   1.88689   1.89405   1.90090
 Alpha virt. eigenvalues --    1.90195   1.90566   1.90858   1.91353   1.92082
 Alpha virt. eigenvalues --    1.92150   1.92758   1.92978   1.93831   1.94011
 Alpha virt. eigenvalues --    1.94577   1.94660   1.95077   1.95122   1.95814
 Alpha virt. eigenvalues --    1.96044   1.96491   1.96752   1.97413   1.97997
 Alpha virt. eigenvalues --    1.98188   1.98351   1.98551   1.98932   1.99071
 Alpha virt. eigenvalues --    1.99390   1.99874   2.00095   2.00267   2.01024
 Alpha virt. eigenvalues --    2.01811   2.01908   2.02008   2.02311   2.03009
 Alpha virt. eigenvalues --    2.03333   2.03386   2.04100   2.04619   2.04911
 Alpha virt. eigenvalues --    2.05572   2.05766   2.05865   2.06529   2.06777
 Alpha virt. eigenvalues --    2.07504   2.07663   2.08040   2.08897   2.09331
 Alpha virt. eigenvalues --    2.09584   2.09770   2.10302   2.10731   2.11321
 Alpha virt. eigenvalues --    2.13072   2.13721   2.13947   2.14091   2.14790
 Alpha virt. eigenvalues --    2.15231   2.15626   2.16126   2.16144   2.16718
 Alpha virt. eigenvalues --    2.17559   2.17840   2.18286   2.18920   2.19310
 Alpha virt. eigenvalues --    2.19507   2.20059   2.20670   2.20871   2.21286
 Alpha virt. eigenvalues --    2.21851   2.22206   2.23436   2.23966   2.24026
 Alpha virt. eigenvalues --    2.24488   2.25199   2.25648   2.26060   2.26487
 Alpha virt. eigenvalues --    2.27061   2.27305   2.27780   2.28048   2.28221
 Alpha virt. eigenvalues --    2.28875   2.29286   2.29627   2.30278   2.30642
 Alpha virt. eigenvalues --    2.30823   2.31279   2.31963   2.33116   2.33303
 Alpha virt. eigenvalues --    2.33675   2.34166   2.34599   2.35488   2.35645
 Alpha virt. eigenvalues --    2.36331   2.37285   2.37398   2.37671   2.38999
 Alpha virt. eigenvalues --    2.39559   2.39679   2.40690   2.40957   2.41319
 Alpha virt. eigenvalues --    2.41701   2.42486   2.42594   2.43189   2.43779
 Alpha virt. eigenvalues --    2.44250   2.44835   2.45433   2.46017   2.46416
 Alpha virt. eigenvalues --    2.47019   2.47437   2.47569   2.48321   2.49109
 Alpha virt. eigenvalues --    2.49468   2.49525   2.50087   2.50667   2.51968
 Alpha virt. eigenvalues --    2.52172   2.53209   2.54511   2.55348   2.56427
 Alpha virt. eigenvalues --    2.56506   2.56878   2.57085   2.57890   2.58694
 Alpha virt. eigenvalues --    2.59199   2.60095   2.60525   2.62258   2.62704
 Alpha virt. eigenvalues --    2.64365   2.64701   2.66672   2.66830   2.67400
 Alpha virt. eigenvalues --    2.67823   2.68186   2.68535   2.69279   2.69487
 Alpha virt. eigenvalues --    2.71325   2.71550   2.72034   2.72512   2.73182
 Alpha virt. eigenvalues --    2.73380   2.75411   2.75807   2.79006   2.79679
 Alpha virt. eigenvalues --    2.81585   2.81962   2.82400   2.83535   2.83907
 Alpha virt. eigenvalues --    2.84056   2.84539   2.85252   2.85522   2.86810
 Alpha virt. eigenvalues --    2.87634   2.88258   2.89642   2.91772   2.93570
 Alpha virt. eigenvalues --    2.94164   2.94710   2.95989   2.97900   2.98261
 Alpha virt. eigenvalues --    2.99206   3.00009   3.02540   3.02870   3.03435
 Alpha virt. eigenvalues --    3.04617   3.06133   3.07620   3.08071   3.08710
 Alpha virt. eigenvalues --    3.10258   3.10810   3.11441   3.11747   3.12025
 Alpha virt. eigenvalues --    3.13228   3.13983   3.14890   3.15017   3.15285
 Alpha virt. eigenvalues --    3.15552   3.16234   3.17254   3.17906   3.18812
 Alpha virt. eigenvalues --    3.19338   3.19952   3.20672   3.20855   3.21154
 Alpha virt. eigenvalues --    3.21763   3.24908   3.25573   3.29222   3.29838
 Alpha virt. eigenvalues --    3.31607   3.32006   3.33578   3.34785   3.35398
 Alpha virt. eigenvalues --    3.36311   3.37484   3.42713   3.44536   3.45585
 Alpha virt. eigenvalues --    3.47287   3.50401   3.50751   3.51653   3.54513
 Alpha virt. eigenvalues --    3.55959   3.56877   3.62373   3.64177   3.70223
 Alpha virt. eigenvalues --    3.70605   3.76069   3.84969   3.89962   3.91657
 Alpha virt. eigenvalues --    3.93639   4.02037   4.12495   4.13287   4.19414
 Alpha virt. eigenvalues --    4.20464   4.21669   4.21890   4.22046   4.23045
 Alpha virt. eigenvalues --    4.26858   4.29228   4.29721   4.30867   4.32060
 Alpha virt. eigenvalues --    4.35399   4.36949   4.37274   4.37590   4.39215
 Alpha virt. eigenvalues --    4.39711   4.40566   4.42129   4.42479   4.47361
 Alpha virt. eigenvalues --    4.47989   4.71921   4.72500   4.77216   4.77356
 Alpha virt. eigenvalues --    5.46009   5.48185   5.55395   5.61321   5.63677
 Alpha virt. eigenvalues --    5.70823   5.72213   5.89831   6.04358   6.62301
 Alpha virt. eigenvalues --    6.62475   6.69121   6.69880   6.70886   6.71984
 Alpha virt. eigenvalues --    6.73758   6.75349   6.76105   6.76481   6.76789
 Alpha virt. eigenvalues --    6.78252   6.79166   6.79597   6.80849   6.81896
 Alpha virt. eigenvalues --    6.83024   6.84453   6.85359   6.85910   6.88270
 Alpha virt. eigenvalues --    6.90018   6.91298   6.92100   6.92909   6.93238
 Alpha virt. eigenvalues --    6.93941   6.95253   6.97574   6.98881   7.00420
 Alpha virt. eigenvalues --    7.01201   7.02914   7.05207   7.22727   7.23381
 Alpha virt. eigenvalues --    7.61947   7.65090   7.67662   7.68777   7.75217
 Alpha virt. eigenvalues --    7.79478   8.45899   8.46599   8.47021   8.47636
 Alpha virt. eigenvalues --    8.49353   8.50162   8.50705   8.55759   8.61666
 Alpha virt. eigenvalues --    8.93489   9.82902   9.83156   9.83698   9.84104
 Alpha virt. eigenvalues --    9.85294   9.85590   9.86211   9.87784   9.88524
 Alpha virt. eigenvalues --    9.89852   9.91739   9.92404   9.93115   9.96497
 Alpha virt. eigenvalues --    9.98778   9.99561  10.02837  10.03637  10.04251
 Alpha virt. eigenvalues --   10.05749  10.06647  10.10336  10.24059  14.05290
 Alpha virt. eigenvalues --   14.14688  15.58048  15.62821  16.70730  16.74531
 Alpha virt. eigenvalues --   16.78848  16.81392  16.89246  16.93169  17.02398
 Alpha virt. eigenvalues --   17.03110  17.03249  17.04207  17.06145  17.06363
 Alpha virt. eigenvalues --   17.08705  17.10245  17.11256  17.13497  17.14466
 Alpha virt. eigenvalues --   17.15710  17.17053  17.17713  17.18788  17.20037
 Alpha virt. eigenvalues --   17.23404  17.25834  17.26200  17.27312  17.32855
 Alpha virt. eigenvalues --   17.32999  17.36228  17.37325  20.95886  21.12415
 Alpha virt. eigenvalues --   21.26092  25.44953  25.46528  25.51953  25.56221
 Alpha virt. eigenvalues --   25.57640  25.63769  26.09872  31.64830  31.65843
 Alpha virt. eigenvalues --   31.69066  31.69906  31.71449  31.72997  31.73879
 Alpha virt. eigenvalues --   31.75776  31.78803  31.79853  42.90055  42.96527
 Alpha virt. eigenvalues --   42.99402  43.04405  43.14013  61.77227  61.85316
 Alpha virt. eigenvalues --   62.95133  62.99253  78.03411  78.06682  78.10338
 Alpha virt. eigenvalues --   78.13127  78.19601  78.23157  82.13949  86.08824
 Alpha virt. eigenvalues --   86.22717  86.33379  89.28272  89.29205  89.30033
 Alpha virt. eigenvalues --   89.30320  89.31526  89.32154  89.34069  89.35313
 Alpha virt. eigenvalues --   89.36783  89.39169  89.40365  89.41305  89.43243
 Alpha virt. eigenvalues --   89.43944  89.44718  89.46351  89.47971  89.50861
 Alpha virt. eigenvalues --   89.51309  89.51970  89.60906  89.61064  89.63977
 Alpha virt. eigenvalues --   89.65216 121.80398 121.81535 121.85351 121.88410
 Alpha virt. eigenvalues --  121.89473 121.94204 239.13421 239.17063 257.25011
 Alpha virt. eigenvalues --  332.10001 332.18469 428.69873 428.80851 428.89055
 Alpha virt. eigenvalues --  431.64953 431.68393 431.72269 431.75269 431.82041
 Alpha virt. eigenvalues --  431.85738 590.17940 590.18837 590.21736 590.24141
 Alpha virt. eigenvalues --  590.24975 590.28597 772.92945 839.53735 839.56990
 Alpha virt. eigenvalues -- 2068.532252529.916692529.945925495.33506**********
 Alpha virt. eigenvalues -- ******************************
          Condensed to atoms (all electrons):
 Mulliken charges:
               1
     1  P   -0.270622
     2  P   -0.463533
     3  C    0.095298
     4  C   -0.315930
     5  C   -0.554243
     6  C    0.374749
     7  C   -0.100965
     8  C   -0.128902
     9  C    0.360003
    10  C   -0.411880
    11  C   -0.475605
    12  C    0.036220
    13  C   -0.134346
    14  C   -0.057732
    15  H    0.095097
    16  H    0.089176
    17  H    0.145080
    18  H    0.125198
    19  H    0.135796
    20  H    0.139003
    21  H    0.131229
    22  H    0.143970
    23  H    0.104054
    24  H    0.116148
    25  H    0.138077
    26  H    0.134255
    27  H    0.136121
    28  H    0.144391
    29  H    0.125741
    30  H    0.119400
    31  Pt   0.823742
    32  Sn   0.270127
    33  Cl  -0.141111
    34  Cl  -0.190817
    35  Cl  -0.219136
    36  Sn   0.289444
    37  Cl  -0.203130
    38  Cl  -0.153998
    39  Cl  -0.234225
    40  C   -0.475408
    41  C    0.413828
    42  C    0.184111
    43  C   -0.102392
    44  H    0.106798
    45  C   -0.156674
    46  H    0.126822
    47  C   -0.590195
    48  H    0.151503
    49  H    0.147759
    50  H    0.153763
    51  C   -0.778747
    52  C    0.307608
    53  C    0.417761
    54  C   -0.097222
    55  H    0.120952
    56  C   -0.130264
    57  H    0.101114
    58  C   -0.565214
    59  H    0.152520
    60  H    0.145801
    61  H    0.149630
 Sum of Mulliken charges =   0.00000
 Mulliken charges with hydrogens summed into heavy atoms:
               1
     1  P   -0.270622
     2  P   -0.463533
     3  C    0.190395
     4  C   -0.315930
     5  C   -0.554243
     6  C    0.463926
     7  C    0.305109
     8  C    0.285300
     9  C    0.464057
    10  C   -0.411880
    11  C   -0.475605
    12  C    0.152368
    13  C    0.274107
    14  C    0.331800
    31  Pt   0.823742
    32  Sn   0.270127
    33  Cl  -0.141111
    34  Cl  -0.190817
    35  Cl  -0.219136
    36  Sn   0.289444
    37  Cl  -0.203130
    38  Cl  -0.153998
    39  Cl  -0.234225
    40  C   -0.475408
    41  C    0.520627
    42  C    0.310933
    43  C    0.049111
    45  C   -0.008916
    47  C   -0.436433
    51  C   -0.778747
    52  C    0.428561
    53  C    0.518874
    54  C    0.055298
    56  C    0.015537
    58  C   -0.415584
 Electronic spatial extent (au):  <R**2>=          25779.1546
 Charge=              0.0000 electrons
 Dipole moment (field-independent basis, Debye):
    X=              0.2746    Y=              0.1346    Z=              1.2164  Tot=              1.2543
 Quadrupole moment (field-independent basis, Debye-Ang):
   XX=           -272.1075   YY=           -377.8770   ZZ=           -311.2550
   XY=             30.4656   XZ=             -7.0687   YZ=            -39.6038
 Traceless Quadrupole moment (field-independent basis, Debye-Ang):
   XX=             48.3057   YY=            -57.4638   ZZ=              9.1582
   XY=             30.4656   XZ=             -7.0687   YZ=            -39.6038
 Octapole moment (field-independent basis, Debye-Ang**2):
  XXX=            -40.0286  YYY=              6.6482  ZZZ=             20.1598  XYY=             29.7934
  XXY=            -33.9307  XXZ=             -3.4460  XZZ=            -10.8357  YZZ=             12.8128
  YYZ=              5.7253  XYZ=              7.1806
 Hexadecapole moment (field-independent basis, Debye-Ang**3):
 XXXX=         -13914.1850 YYYY=         -12915.3387 ZZZZ=          -6101.8400 XXXY=            -19.0771
 XXXZ=             -8.6434 YYYX=            418.9085 YYYZ=           -118.5860 ZZZX=            -86.2839
 ZZZY=           -243.0799 XXYY=          -4325.7702 XXZZ=          -3115.0681 YYZZ=          -3160.8465
 XXYZ=           -461.2064 YYXZ=           -101.8374 ZZXY=            -41.7447
 N-N= 1.302696643085D+04 E-N=-1.051807481300D+05  KE= 3.294144243454D+04
 Calculating spin-rotation constants.
 Leave Link  601 at Sat Aug 24 13:33:45 2019, MaxMem=   939524096 cpu:       434.4
 (Enter /scr/programas/g09/l9999.exe)
 1\1\GINC-NQTCM\SP\RPBEPBE\Gen\C24H26Cl6P2Pt1Sn2\NQTCM\24-Aug-2019\0\\#
 PBEPBE/gen scf=(maxcycle=500,conver=4) NMR=GIAO Scrf=(solvent=Dichloro
 methane)\\estrutura 61\\0,1\P,0,-2.300608,-0.544499,0.206785\P,0,2.357
 022,0.519131,-0.076686\C,0,-2.802169,-2.284974,0.275139\C,0,-3.326111,
 -2.575977,1.488395\C,0,-3.386417,-1.403577,2.418806\C,0,-2.936278,-0.2
 47119,1.875763\C,0,-3.79718,-3.934498,1.910201\C,0,-3.933455,-1.536056
 ,3.809622\C,0,3.02006,0.526045,-1.752976\C,0,3.461173,1.770507,-2.0664
 41\C,0,3.406709,2.744613,-0.931177\C,0,2.875851,2.231158,0.202822\C,0,
 3.927745,2.178233,-3.432454\C,0,3.900013,4.151577,-1.077479\H,0,-2.696
 143,-2.97833,-0.558064\H,0,-2.903071,0.71925,2.376277\H,0,-4.789979,-3
 .889121,2.388948\H,0,-3.84936,-4.622652,1.05467\H,0,-3.101259,-4.36436
 5,2.65368\H,0,-3.577476,-2.458909,4.294495\H,0,-3.648117,-0.677762,4.4
 35426\H,0,-5.037289,-1.587809,3.790269\H,0,2.967759,-0.32201,-2.435141
 \H,0,2.753638,2.759734,1.148126\H,0,4.794005,2.85839,-3.388355\H,0,4.1
 92316,1.300819,-4.040802\H,0,3.122526,2.724164,-3.959369\H,0,4.958535,
 4.174568,-1.388725\H,0,3.32337,4.682353,-1.855252\H,0,3.796929,4.70566
 1,-0.134961\Pt,0,0.02761,-0.001298,0.017015\Sn,0,-0.537036,2.521713,0.
 657911\Cl,0,-2.814865,3.213621,1.09883\Cl,0,0.021183,4.245486,-0.93787
 \Cl,0,0.474746,3.323311,2.711794\Sn,0,0.534013,-2.48701,-0.823504\Cl,0
 ,0.359537,-4.286266,0.778437\Cl,0,2.657614,-3.059867,-1.845823\Cl,0,-0
 .891049,-3.280304,-2.62164\C,0,3.374743,-0.483473,1.070997\C,0,3.03678
 6,-0.459062,2.437419\C,0,4.503765,-1.200137,0.639291\C,0,3.831962,-1.1
 37157,3.363674\H,0,2.157947,0.098604,2.779446\C,0,5.289089,-1.883096,1
 .574095\H,0,4.7663,-1.236792,-0.418917\C,0,4.957809,-1.849669,2.934007
 \H,0,3.568835,-1.10766,4.427019\H,0,6.165574,-2.441622,1.23515\H,0,5.5
 76742,-2.381681,3.660743\C,0,-3.380175,0.229266,-1.060748\C,0,-4.77488
 2,0.094293,-0.949724\C,0,-2.831551,0.902059,-2.162731\C,0,-5.606999,0.
 635068,-1.930166\H,0,-5.211387,-0.43612,-0.098364\C,0,-3.672315,1.4432
 22,-3.142108\H,0,-1.746349,1.007967,-2.262623\C,0,-5.056997,1.311462,-
 3.027308\H,0,-6.692181,0.525261,-1.839144\H,0,-3.238293,1.971042,-3.99
 5468\H,0,-5.711097,1.735686,-3.792937\\Version=EM64L-G09RevD.01\State=
 1-A\HF=-33442.9029858\RMSD=6.455e-05\Dipole=0.1080552,0.0529533,0.4785
 741\Quadrupole=35.9141162,-42.7229815,6.8088653,22.6503742,-5.2554021,
 -29.4444456\PG=C01 [X(C24H26Cl6P2Pt1Sn2)]\\@


 EVERYBODY NEEDS BEAUTY AS WELL AS BREAD, PLACES TO PLAY IN AND PRAY IN,
 WHERE NATURE MAY HEAL AND CHEER AND GIVE STRENGTH TO BODY AND SOUL ALIKE.

                                    -- JOHN MUIR
 Job cpu time:       1 days  0 hours  8 minutes 46.4 seconds.
 File lengths (MBytes):  RWF=   1620 Int=      0 D2E=      0 Chk=    117 Scr=      1
 Normal termination of Gaussian 09 at Sat Aug 24 13:33:45 2019.
