 Entering Gaussian System, Link 0=g09
 Input=estrutura91.com
 Output=estrutura91.log
 Initial command:
 /scr/programs/g09/l1.exe "/scr/guest/Gau-29139.inp" -scrdir="/scr/guest/"
 Entering Link 1 = /scr/programs/g09/l1.exe PID=     29140.
  
 Copyright (c) 1988,1990,1992,1993,1995,1998,2003,2009,2013,
            Gaussian, Inc.  All Rights Reserved.
  
 This is part of the Gaussian(R) 09 program.  It is based on
 the Gaussian(R) 03 system (copyright 2003, Gaussian, Inc.),
 the Gaussian(R) 98 system (copyright 1998, Gaussian, Inc.),
 the Gaussian(R) 94 system (copyright 1995, Gaussian, Inc.),
 the Gaussian 92(TM) system (copyright 1992, Gaussian, Inc.),
 the Gaussian 90(TM) system (copyright 1990, Gaussian, Inc.),
 the Gaussian 88(TM) system (copyright 1988, Gaussian, Inc.),
 the Gaussian 86(TM) system (copyright 1986, Carnegie Mellon
 University), and the Gaussian 82(TM) system (copyright 1983,
 Carnegie Mellon University). Gaussian is a federally registered
 trademark of Gaussian, Inc.
  
 This software contains proprietary and confidential information,
 including trade secrets, belonging to Gaussian, Inc.
  
 This software is provided under written license and may be
 used, copied, transmitted, or stored only in accord with that
 written license.
  
 The following legend is applicable only to US Government
 contracts under FAR:
  
                    RESTRICTED RIGHTS LEGEND
  
 Use, reproduction and disclosure by the US Government is
 subject to restrictions as set forth in subparagraphs (a)
 and (c) of the Commercial Computer Software - Restricted
 Rights clause in FAR 52.227-19.
  
 Gaussian, Inc.
 340 Quinnipiac St., Bldg. 40, Wallingford CT 06492
  
  
 ---------------------------------------------------------------
 Warning -- This program may not be used in any manner that
 competes with the business of Gaussian, Inc. or will provide
 assistance to any competitor of Gaussian, Inc.  The licensee
 of this program is prohibited from giving any competitor of
 Gaussian, Inc. access to this program.  By using this program,
 the user acknowledges that Gaussian, Inc. is engaged in the
 business of creating and licensing software in the field of
 computational chemistry and represents and warrants to the
 licensee that it is not a competitor of Gaussian, Inc. and that
 it will not use this program in any manner prohibited above.
 ---------------------------------------------------------------
  

 Cite this work as:
 Gaussian 09, Revision D.01,
 M. J. Frisch, G. W. Trucks, H. B. Schlegel, G. E. Scuseria, 
 M. A. Robb, J. R. Cheeseman, G. Scalmani, V. Barone, B. Mennucci, 
 G. A. Petersson, H. Nakatsuji, M. Caricato, X. Li, H. P. Hratchian, 
 A. F. Izmaylov, J. Bloino, G. Zheng, J. L. Sonnenberg, M. Hada, 
 M. Ehara, K. Toyota, R. Fukuda, J. Hasegawa, M. Ishida, T. Nakajima, 
 Y. Honda, O. Kitao, H. Nakai, T. Vreven, J. A. Montgomery, Jr., 
 J. E. Peralta, F. Ogliaro, M. Bearpark, J. J. Heyd, E. Brothers, 
 K. N. Kudin, V. N. Staroverov, T. Keith, R. Kobayashi, J. Normand, 
 K. Raghavachari, A. Rendell, J. C. Burant, S. S. Iyengar, J. Tomasi, 
 M. Cossi, N. Rega, J. M. Millam, M. Klene, J. E. Knox, J. B. Cross, 
 V. Bakken, C. Adamo, J. Jaramillo, R. Gomperts, R. E. Stratmann, 
 O. Yazyev, A. J. Austin, R. Cammi, C. Pomelli, J. W. Ochterski, 
 R. L. Martin, K. Morokuma, V. G. Zakrzewski, G. A. Voth, 
 P. Salvador, J. J. Dannenberg, S. Dapprich, A. D. Daniels, 
 O. Farkas, J. B. Foresman, J. V. Ortiz, J. Cioslowski, 
 and D. J. Fox, Gaussian, Inc., Wallingford CT, 2013.
 
 ******************************************
 Gaussian 09:  EM64L-G09RevD.01 24-Apr-2013
                11-Apr-2020 
 ******************************************
 %mem=30Gb
 %nproc=24
 Will use up to   24 processors via shared memory.
 ----------------------------------------------------------------------
 #PBEPBE/gen scf=(maxcycle=500,conver=2) NMR=GIAO Scrf=(solvent=Dichlor
 omethane)
 ----------------------------------------------------------------------
 1/38=1/1;
 2/12=2,17=6,18=5,40=1/2;
 3/5=7,11=2,16=1,25=1,30=1,70=2201,72=9,74=1009/1,2,8,3;
 4//1;
 5/5=2,6=2,7=500,38=5,53=9/2;
 8/6=1,10=90,11=11/1;
 10/13=100,45=16/2;
 6/7=2,8=2,9=2,10=2,28=1/1;
 99/9=1/99;
 Leave Link    1 at Sat Apr 11 11:34:01 2020, MaxMem=  4026531840 cpu:         4.7
 (Enter /scr/programs/g09/l101.exe)
 ------------
 estrutura 91
 ------------
 Symbolic Z-matrix:
 Charge =  0 Multiplicity = 1
 Pt                    0.71563   0.35479  -0.16416 
 C                     0.74751   2.43361  -0.05432 
 C                     0.60632   3.16819   1.1391 
 C                     0.95266   3.18073  -1.23373 
 C                     0.68132   4.5669    1.16011 
 H                     0.41862   2.6503    2.08192 
 C                     1.01814   4.5797   -1.22422 
 H                     1.07542   2.66255  -2.18934 
 C                     0.88581   5.28357  -0.02271 
 H                     0.56536   5.09823   2.10977 
 H                     1.17789   5.11985  -2.16259 
 H                     0.93679   6.37594  -0.00976 
 P                     3.0966    0.48021   0.5417 
 P                     0.53128  -2.06102  -0.42227 
 C                     3.20179   0.71927   2.3722 
 C                     4.44611   0.87457   3.01376 
 C                     2.03843   0.662     3.15538 
 C                     4.51644   0.99981   4.40248 
 H                     5.36917   0.88512   2.42962 
 C                     2.11115   0.77966   4.54838 
 H                     1.0721    0.50682   2.6711 
 C                     3.34794   0.9548    5.1733 
 H                     5.48879   1.12401   4.8858 
 H                     1.19605   0.72758   5.14383 
 H                     3.40542   1.04592   6.26086 
 C                     3.94806   1.92855  -0.23244 
 C                     4.03057   1.96791  -1.63719 
 C                     4.47864   3.00097   0.50019 
 C                     4.66836   3.02565  -2.28831 
 H                     3.58163   1.17305  -2.23741 
 C                     5.10158   4.06974  -0.15444 
 H                     4.40095   3.02012   1.58724 
 C                     5.20876   4.08138  -1.54692 
 H                     4.72875   3.03133  -3.37932 
 H                     5.50398   4.89802   0.43399 
 H                     5.70022   4.91509  -2.05439 
 C                     4.35293  -0.88318   0.33679 
 C                     4.27834  -1.98639   1.20661 
 C                     5.36605  -0.86635  -0.63568 
 C                     5.18763  -3.04171   1.10484 
 H                     3.5129   -2.02045   1.98279 
 C                     6.27738  -1.92307  -0.73551 
 H                     5.46547  -0.0238   -1.31809 
 C                     6.19127  -3.01552   0.13124 
 H                     5.11114  -3.88569   1.794 
 H                     7.06202  -1.88405  -1.49595 
 H                     6.90544  -3.83893   0.05299 
 C                    -1.04059  -2.80542  -1.08102 
 C                    -1.75953  -3.80122  -0.40308 
 C                    -1.47151  -2.40383  -2.35753 
 C                    -2.88812  -4.38382  -0.99073 
 H                    -1.44565  -4.13054   0.58839 
 C                    -2.59599  -2.98858  -2.94332 
 H                    -0.92641  -1.63054  -2.90452 
 C                    -3.3085   -3.98134  -2.26087 
 H                    -3.43966  -5.15595  -0.44782 
 H                    -2.91965  -2.66172  -3.9344 
 H                    -4.19028  -4.43792  -2.71844 
 C                     0.74482  -2.94044   1.19104 
 C                     1.60582  -4.02855   1.40084 
 C                    -0.0231   -2.46489   2.27177 
 C                     1.69721  -4.62769   2.66296 
 H                     2.22417  -4.40929   0.58798 
 C                     0.06463  -3.06974   3.52829 
 H                    -0.70624  -1.62394   2.12732 
 C                     0.92783  -4.15238   3.72827 
 H                     2.37581  -5.47139   2.81037 
 H                    -0.54314  -2.69143   4.35384 
 H                     1.00061  -4.6229    4.71224 
 C                     1.68968  -2.81746  -1.6559 
 C                     1.66614  -4.19669  -1.94163 
 C                     2.50297  -1.9828   -2.43563 
 C                     2.463    -4.72477  -2.95852 
 H                     1.00295  -4.86339  -1.38697 
 C                     3.29129  -2.50969  -3.46466 
 H                     2.5019   -0.90797  -2.24653 
 C                     3.27814  -3.88189  -3.72353 
 H                     2.43522  -5.79762  -3.1658 
 H                     3.91357  -1.84192  -4.06527 
 H                     3.8921   -4.29551  -4.52711 
 Sn                   -1.86885   0.90358  -0.51876 
 C                    -2.59902   0.99506  -2.59914 
 C                    -3.85098   0.46656  -2.95738 
 C                    -1.83338   1.61557  -3.60352 
 C                    -4.32979   0.5648   -4.27041 
 H                    -4.45995  -0.0452   -2.20619 
 C                    -2.30513   1.71406  -4.92024 
 H                    -0.85185   2.03473  -3.36561 
 C                    -3.55734   1.19033  -5.25624 
 H                    -5.30874   0.14913  -4.52538 
 H                    -1.69212   2.20188  -5.68429 
 H                    -3.92906   1.2676   -6.28223 
 C                    -2.68903   2.7628    0.32309 
 C                    -3.12285   3.79792  -0.52079 
 C                    -2.80908   2.9501    1.71149 
 C                    -3.65584   4.98409   0.00179 
 H                    -3.05119   3.68623  -1.6065 
 C                    -3.34399   4.13023   2.24027 
 H                    -2.48463   2.1641    2.40067 
 C                    -3.76847   5.15287   1.38448 
 H                    -3.98635   5.77632  -0.67573 
 H                    -3.42926   4.25337   3.32365 
 H                    -4.18602   6.07628   1.79472 
 S                    -3.39352  -0.74702   0.63871 
 C                    -4.98777   0.18391   0.89852 
 H                    -4.77805   1.112     1.44614 
 H                    -5.40394   0.45362  -0.0827 
 C                    -5.95609  -0.68125   1.66229 
 C                    -6.78634  -1.59664   0.9931 
 C                    -6.03476  -0.60828   3.06367 
 C                    -7.67534  -2.40879   1.70237 
 H                    -6.73425  -1.67055  -0.09704 
 C                    -6.92299  -1.41919   3.77633 
 H                    -5.39386   0.097     3.60013 
 C                    -7.74713  -2.32279   3.09768 
 H                    -8.31722  -3.11064   1.16357 
 H                    -6.97386  -1.34302   4.86611 
 H                    -8.4439   -2.95574   3.65307 
 
 NAtoms=    118 NQM=      118 NQMF=       0 NMMI=      0 NMMIF=      0
                NMic=       0 NMicF=      0.
                    Isotopes and Nuclear Properties:
 (Nuclear quadrupole moments (NQMom) in fm**2, nuclear magnetic moments (NMagM)
  in nuclear magnetons)

  Atom         1           2           3           4           5           6           7           8           9          10
 IAtWgt=         195          12          12          12          12           1          12           1          12           1
 AtmWgt= 194.9648000  12.0000000  12.0000000  12.0000000  12.0000000   1.0078250  12.0000000   1.0078250  12.0000000   1.0078250
 NucSpn=           1           0           0           0           0           1           0           1           0           1
 AtZEff=   0.0000000   0.0000000   0.0000000   0.0000000   0.0000000   0.0000000   0.0000000   0.0000000   0.0000000   0.0000000
 NQMom=    0.0000000   0.0000000   0.0000000   0.0000000   0.0000000   0.0000000   0.0000000   0.0000000   0.0000000   0.0000000
 NMagM=    0.6095000   0.0000000   0.0000000   0.0000000   0.0000000   2.7928460   0.0000000   2.7928460   0.0000000   2.7928460
 AtZNuc=  78.0000000   6.0000000   6.0000000   6.0000000   6.0000000   1.0000000   6.0000000   1.0000000   6.0000000   1.0000000

  Atom        11          12          13          14          15          16          17          18          19          20
 IAtWgt=           1           1          31          31          12          12          12          12           1          12
 AtmWgt=   1.0078250   1.0078250  30.9737634  30.9737634  12.0000000  12.0000000  12.0000000  12.0000000   1.0078250  12.0000000
 NucSpn=           1           1           1           1           0           0           0           0           1           0
 AtZEff=   0.0000000   0.0000000   0.0000000   0.0000000   0.0000000   0.0000000   0.0000000   0.0000000   0.0000000   0.0000000
 NQMom=    0.0000000   0.0000000   0.0000000   0.0000000   0.0000000   0.0000000   0.0000000   0.0000000   0.0000000   0.0000000
 NMagM=    2.7928460   2.7928460   1.1316000   1.1316000   0.0000000   0.0000000   0.0000000   0.0000000   2.7928460   0.0000000
 AtZNuc=   1.0000000   1.0000000  15.0000000  15.0000000   6.0000000   6.0000000   6.0000000   6.0000000   1.0000000   6.0000000

  Atom        21          22          23          24          25          26          27          28          29          30
 IAtWgt=           1          12           1           1           1          12          12          12          12           1
 AtmWgt=   1.0078250  12.0000000   1.0078250   1.0078250   1.0078250  12.0000000  12.0000000  12.0000000  12.0000000   1.0078250
 NucSpn=           1           0           1           1           1           0           0           0           0           1
 AtZEff=   0.0000000   0.0000000   0.0000000   0.0000000   0.0000000   0.0000000   0.0000000   0.0000000   0.0000000   0.0000000
 NQMom=    0.0000000   0.0000000   0.0000000   0.0000000   0.0000000   0.0000000   0.0000000   0.0000000   0.0000000   0.0000000
 NMagM=    2.7928460   0.0000000   2.7928460   2.7928460   2.7928460   0.0000000   0.0000000   0.0000000   0.0000000   2.7928460
 AtZNuc=   1.0000000   6.0000000   1.0000000   1.0000000   1.0000000   6.0000000   6.0000000   6.0000000   6.0000000   1.0000000

  Atom        31          32          33          34          35          36          37          38          39          40
 IAtWgt=          12           1          12           1           1           1          12          12          12          12
 AtmWgt=  12.0000000   1.0078250  12.0000000   1.0078250   1.0078250   1.0078250  12.0000000  12.0000000  12.0000000  12.0000000
 NucSpn=           0           1           0           1           1           1           0           0           0           0
 AtZEff=   0.0000000   0.0000000   0.0000000   0.0000000   0.0000000   0.0000000   0.0000000   0.0000000   0.0000000   0.0000000
 NQMom=    0.0000000   0.0000000   0.0000000   0.0000000   0.0000000   0.0000000   0.0000000   0.0000000   0.0000000   0.0000000
 NMagM=    0.0000000   2.7928460   0.0000000   2.7928460   2.7928460   2.7928460   0.0000000   0.0000000   0.0000000   0.0000000
 AtZNuc=   6.0000000   1.0000000   6.0000000   1.0000000   1.0000000   1.0000000   6.0000000   6.0000000   6.0000000   6.0000000

  Atom        41          42          43          44          45          46          47          48          49          50
 IAtWgt=           1          12           1          12           1           1           1          12          12          12
 AtmWgt=   1.0078250  12.0000000   1.0078250  12.0000000   1.0078250   1.0078250   1.0078250  12.0000000  12.0000000  12.0000000
 NucSpn=           1           0           1           0           1           1           1           0           0           0
 AtZEff=   0.0000000   0.0000000   0.0000000   0.0000000   0.0000000   0.0000000   0.0000000   0.0000000   0.0000000   0.0000000
 NQMom=    0.0000000   0.0000000   0.0000000   0.0000000   0.0000000   0.0000000   0.0000000   0.0000000   0.0000000   0.0000000
 NMagM=    2.7928460   0.0000000   2.7928460   0.0000000   2.7928460   2.7928460   2.7928460   0.0000000   0.0000000   0.0000000
 AtZNuc=   1.0000000   6.0000000   1.0000000   6.0000000   1.0000000   1.0000000   1.0000000   6.0000000   6.0000000   6.0000000

  Atom        51          52          53          54          55          56          57          58          59          60
 IAtWgt=          12           1          12           1          12           1           1           1          12          12
 AtmWgt=  12.0000000   1.0078250  12.0000000   1.0078250  12.0000000   1.0078250   1.0078250   1.0078250  12.0000000  12.0000000
 NucSpn=           0           1           0           1           0           1           1           1           0           0
 AtZEff=   0.0000000   0.0000000   0.0000000   0.0000000   0.0000000   0.0000000   0.0000000   0.0000000   0.0000000   0.0000000
 NQMom=    0.0000000   0.0000000   0.0000000   0.0000000   0.0000000   0.0000000   0.0000000   0.0000000   0.0000000   0.0000000
 NMagM=    0.0000000   2.7928460   0.0000000   2.7928460   0.0000000   2.7928460   2.7928460   2.7928460   0.0000000   0.0000000
 AtZNuc=   6.0000000   1.0000000   6.0000000   1.0000000   6.0000000   1.0000000   1.0000000   1.0000000   6.0000000   6.0000000

  Atom        61          62          63          64          65          66          67          68          69          70
 IAtWgt=          12          12           1          12           1          12           1           1           1          12
 AtmWgt=  12.0000000  12.0000000   1.0078250  12.0000000   1.0078250  12.0000000   1.0078250   1.0078250   1.0078250  12.0000000
 NucSpn=           0           0           1           0           1           0           1           1           1           0
 AtZEff=   0.0000000   0.0000000   0.0000000   0.0000000   0.0000000   0.0000000   0.0000000   0.0000000   0.0000000   0.0000000
 NQMom=    0.0000000   0.0000000   0.0000000   0.0000000   0.0000000   0.0000000   0.0000000   0.0000000   0.0000000   0.0000000
 NMagM=    0.0000000   0.0000000   2.7928460   0.0000000   2.7928460   0.0000000   2.7928460   2.7928460   2.7928460   0.0000000
 AtZNuc=   6.0000000   6.0000000   1.0000000   6.0000000   1.0000000   6.0000000   1.0000000   1.0000000   1.0000000   6.0000000

  Atom        71          72          73          74          75          76          77          78          79          80
 IAtWgt=          12          12          12           1          12           1          12           1           1           1
 AtmWgt=  12.0000000  12.0000000  12.0000000   1.0078250  12.0000000   1.0078250  12.0000000   1.0078250   1.0078250   1.0078250
 NucSpn=           0           0           0           1           0           1           0           1           1           1
 AtZEff=   0.0000000   0.0000000   0.0000000   0.0000000   0.0000000   0.0000000   0.0000000   0.0000000   0.0000000   0.0000000
 NQMom=    0.0000000   0.0000000   0.0000000   0.0000000   0.0000000   0.0000000   0.0000000   0.0000000   0.0000000   0.0000000
 NMagM=    0.0000000   0.0000000   0.0000000   2.7928460   0.0000000   2.7928460   0.0000000   2.7928460   2.7928460   2.7928460
 AtZNuc=   6.0000000   6.0000000   6.0000000   1.0000000   6.0000000   1.0000000   6.0000000   1.0000000   1.0000000   1.0000000

  Atom        81          82          83          84          85          86          87          88          89          90
 IAtWgt=         118          12          12          12          12           1          12           1          12           1
 AtmWgt= 117.9018000  12.0000000  12.0000000  12.0000000  12.0000000   1.0078250  12.0000000   1.0078250  12.0000000   1.0078250
 NucSpn=           0           0           0           0           0           1           0           1           0           1
 AtZEff=   0.0000000   0.0000000   0.0000000   0.0000000   0.0000000   0.0000000   0.0000000   0.0000000   0.0000000   0.0000000
 NQMom=    0.0000000   0.0000000   0.0000000   0.0000000   0.0000000   0.0000000   0.0000000   0.0000000   0.0000000   0.0000000
 NMagM=    0.0000000   0.0000000   0.0000000   0.0000000   0.0000000   2.7928460   0.0000000   2.7928460   0.0000000   2.7928460
 AtZNuc=  50.0000000   6.0000000   6.0000000   6.0000000   6.0000000   1.0000000   6.0000000   1.0000000   6.0000000   1.0000000

  Atom        91          92          93          94          95          96          97          98          99         100
 IAtWgt=           1           1          12          12          12          12           1          12           1          12
 AtmWgt=   1.0078250   1.0078250  12.0000000  12.0000000  12.0000000  12.0000000   1.0078250  12.0000000   1.0078250  12.0000000
 NucSpn=           1           1           0           0           0           0           1           0           1           0
 AtZEff=   0.0000000   0.0000000   0.0000000   0.0000000   0.0000000   0.0000000   0.0000000   0.0000000   0.0000000   0.0000000
 NQMom=    0.0000000   0.0000000   0.0000000   0.0000000   0.0000000   0.0000000   0.0000000   0.0000000   0.0000000   0.0000000
 NMagM=    2.7928460   2.7928460   0.0000000   0.0000000   0.0000000   0.0000000   2.7928460   0.0000000   2.7928460   0.0000000
 AtZNuc=   1.0000000   1.0000000   6.0000000   6.0000000   6.0000000   6.0000000   1.0000000   6.0000000   1.0000000   6.0000000

  Atom       101         102         103         104         105         106         107         108         109         110
 IAtWgt=           1           1           1          32          12           1           1          12          12          12
 AtmWgt=   1.0078250   1.0078250   1.0078250  31.9720718  12.0000000   1.0078250   1.0078250  12.0000000  12.0000000  12.0000000
 NucSpn=           1           1           1           0           0           1           1           0           0           0
 AtZEff=   0.0000000   0.0000000   0.0000000   0.0000000   0.0000000   0.0000000   0.0000000   0.0000000   0.0000000   0.0000000
 NQMom=    0.0000000   0.0000000   0.0000000   0.0000000   0.0000000   0.0000000   0.0000000   0.0000000   0.0000000   0.0000000
 NMagM=    2.7928460   2.7928460   2.7928460   0.0000000   0.0000000   2.7928460   2.7928460   0.0000000   0.0000000   0.0000000
 AtZNuc=   1.0000000   1.0000000   1.0000000  16.0000000   6.0000000   1.0000000   1.0000000   6.0000000   6.0000000   6.0000000

  Atom       111         112         113         114         115         116         117         118
 IAtWgt=          12           1          12           1          12           1           1           1
 AtmWgt=  12.0000000   1.0078250  12.0000000   1.0078250  12.0000000   1.0078250   1.0078250   1.0078250
 NucSpn=           0           1           0           1           0           1           1           1
 AtZEff=   0.0000000   0.0000000   0.0000000   0.0000000   0.0000000   0.0000000   0.0000000   0.0000000
 NQMom=    0.0000000   0.0000000   0.0000000   0.0000000   0.0000000   0.0000000   0.0000000   0.0000000
 NMagM=    0.0000000   2.7928460   0.0000000   2.7928460   0.0000000   2.7928460   2.7928460   2.7928460
 AtZNuc=   6.0000000   1.0000000   6.0000000   1.0000000   6.0000000   1.0000000   1.0000000   1.0000000
 Leave Link  101 at Sat Apr 11 11:34:01 2020, MaxMem=  4026531840 cpu:         8.3
 (Enter /scr/programs/g09/l202.exe)
 Stoichiometry    C61H52P2PtSSn
 Framework group  C1[X(C61H52P2PtSSn)]
 Deg. of freedom   348
 Full point group                 C1      NOp   1
 Largest Abelian subgroup         C1      NOp   1
 Largest concise Abelian subgroup C1      NOp   1
                         Standard orientation:                         
 ---------------------------------------------------------------------
 Center     Atomic      Atomic             Coordinates (Angstroms)
 Number     Number       Type             X           Y           Z
 ---------------------------------------------------------------------
      1         78           0        0.715628    0.354789   -0.164155
      2          6           0        0.747512    2.433612   -0.054315
      3          6           0        0.606324    3.168188    1.139097
      4          6           0        0.952662    3.180728   -1.233726
      5          6           0        0.681320    4.566895    1.160112
      6          1           0        0.418622    2.650296    2.081918
      7          6           0        1.018141    4.579699   -1.224218
      8          1           0        1.075417    2.662546   -2.189338
      9          6           0        0.885806    5.283573   -0.022710
     10          1           0        0.565363    5.098231    2.109766
     11          1           0        1.177887    5.119846   -2.162586
     12          1           0        0.936788    6.375939   -0.009757
     13         15           0        3.096599    0.480210    0.541703
     14         15           0        0.531277   -2.061025   -0.422267
     15          6           0        3.201793    0.719270    2.372198
     16          6           0        4.446112    0.874572    3.013759
     17          6           0        2.038432    0.662004    3.155384
     18          6           0        4.516442    0.999809    4.402480
     19          1           0        5.369167    0.885124    2.429620
     20          6           0        2.111145    0.779663    4.548384
     21          1           0        1.072100    0.506815    2.671102
     22          6           0        3.347937    0.954796    5.173298
     23          1           0        5.488790    1.124010    4.885801
     24          1           0        1.196049    0.727579    5.143828
     25          1           0        3.405422    1.045917    6.260860
     26          6           0        3.948057    1.928551   -0.232437
     27          6           0        4.030570    1.967907   -1.637192
     28          6           0        4.478641    3.000970    0.500188
     29          6           0        4.668355    3.025646   -2.288314
     30          1           0        3.581627    1.173050   -2.237408
     31          6           0        5.101584    4.069741   -0.154437
     32          1           0        4.400945    3.020120    1.587243
     33          6           0        5.208761    4.081383   -1.546924
     34          1           0        4.728751    3.031333   -3.379318
     35          1           0        5.503982    4.898023    0.433985
     36          1           0        5.700224    4.915092   -2.054394
     37          6           0        4.352934   -0.883177    0.336791
     38          6           0        4.278341   -1.986394    1.206614
     39          6           0        5.366050   -0.866353   -0.635682
     40          6           0        5.187626   -3.041710    1.104840
     41          1           0        3.512897   -2.020450    1.982790
     42          6           0        6.277383   -1.923074   -0.735509
     43          1           0        5.465471   -0.023795   -1.318094
     44          6           0        6.191273   -3.015520    0.131235
     45          1           0        5.111137   -3.885691    1.794000
     46          1           0        7.062024   -1.884045   -1.495954
     47          1           0        6.905437   -3.838926    0.052994
     48          6           0       -1.040595   -2.805415   -1.081024
     49          6           0       -1.759532   -3.801222   -0.403077
     50          6           0       -1.471513   -2.403833   -2.357529
     51          6           0       -2.888118   -4.383825   -0.990725
     52          1           0       -1.445654   -4.130542    0.588386
     53          6           0       -2.595985   -2.988576   -2.943318
     54          1           0       -0.926410   -1.630535   -2.904524
     55          6           0       -3.308502   -3.981340   -2.260872
     56          1           0       -3.439663   -5.155952   -0.447822
     57          1           0       -2.919654   -2.661722   -3.934398
     58          1           0       -4.190282   -4.437917   -2.718435
     59          6           0        0.744815   -2.940437    1.191043
     60          6           0        1.605822   -4.028553    1.400840
     61          6           0       -0.023097   -2.464889    2.271773
     62          6           0        1.697205   -4.627687    2.662955
     63          1           0        2.224166   -4.409285    0.587983
     64          6           0        0.064626   -3.069739    3.528294
     65          1           0       -0.706240   -1.623941    2.127318
     66          6           0        0.927830   -4.152376    3.728265
     67          1           0        2.375810   -5.471388    2.810374
     68          1           0       -0.543142   -2.691425    4.353843
     69          1           0        1.000609   -4.622900    4.712237
     70          6           0        1.689676   -2.817460   -1.655901
     71          6           0        1.666138   -4.196693   -1.941626
     72          6           0        2.502968   -1.982799   -2.435631
     73          6           0        2.463001   -4.724773   -2.958516
     74          1           0        1.002946   -4.863393   -1.386969
     75          6           0        3.291286   -2.509694   -3.464661
     76          1           0        2.501899   -0.907973   -2.246528
     77          6           0        3.278136   -3.881886   -3.723534
     78          1           0        2.435217   -5.797620   -3.165802
     79          1           0        3.913574   -1.841916   -4.065268
     80          1           0        3.892104   -4.295505   -4.527111
     81         50           0       -1.868845    0.903584   -0.518755
     82          6           0       -2.599023    0.995064   -2.599140
     83          6           0       -3.850975    0.466555   -2.957381
     84          6           0       -1.833384    1.615570   -3.603521
     85          6           0       -4.329792    0.564795   -4.270414
     86          1           0       -4.459953   -0.045198   -2.206194
     87          6           0       -2.305128    1.714060   -4.920237
     88          1           0       -0.851847    2.034735   -3.365612
     89          6           0       -3.557343    1.190325   -5.256240
     90          1           0       -5.308736    0.149125   -4.525383
     91          1           0       -1.692121    2.201881   -5.684286
     92          1           0       -3.929057    1.267603   -6.282229
     93          6           0       -2.689028    2.762802    0.323090
     94          6           0       -3.122851    3.797916   -0.520787
     95          6           0       -2.809077    2.950097    1.711494
     96          6           0       -3.655836    4.984090    0.001794
     97          1           0       -3.051194    3.686226   -1.606503
     98          6           0       -3.343986    4.130228    2.240274
     99          1           0       -2.484626    2.164098    2.400670
    100          6           0       -3.768474    5.152874    1.384476
    101          1           0       -3.986354    5.776322   -0.675725
    102          1           0       -3.429257    4.253366    3.323646
    103          1           0       -4.186023    6.076277    1.794716
    104         16           0       -3.393518   -0.747016    0.638711
    105          6           0       -4.987768    0.183914    0.898518
    106          1           0       -4.778049    1.111998    1.446143
    107          1           0       -5.403942    0.453617   -0.082700
    108          6           0       -5.956086   -0.681250    1.662288
    109          6           0       -6.786339   -1.596639    0.993101
    110          6           0       -6.034761   -0.608275    3.063671
    111          6           0       -7.675335   -2.408787    1.702367
    112          1           0       -6.734254   -1.670549   -0.097041
    113          6           0       -6.922994   -1.419190    3.776332
    114          1           0       -5.393864    0.096995    3.600128
    115          6           0       -7.747132   -2.322792    3.097680
    116          1           0       -8.317220   -3.110638    1.163566
    117          1           0       -6.973862   -1.343022    4.866108
    118          1           0       -8.443904   -2.955740    3.653071
 ---------------------------------------------------------------------
 Rotational constants (GHZ):      0.0410748      0.0285038      0.0252485
 Leave Link  202 at Sat Apr 11 11:34:01 2020, MaxMem=  4026531840 cpu:         2.7
 (Enter /scr/programs/g09/l301.exe)
 General basis read from cards:  (5D, 7F)
 Centers:       6      8     10     11     12     19     21     23     24     25
 Centers:      30     32     34     35     36     41     43     45     46     47
 Centers:      52     54     56     57     58     63     65     67     68     69
 Centers:      74     76     78     79     80     86     88     90     91     92
 Centers:      97     99    101    102    103    106    107    112    114    116
 Centers:     117    118
 S 5 1.00
     Exponent=  2.8295215633D+02 Coefficients=  4.3000000000D-04
     Exponent=  8.7062201949D+01 Coefficients=  5.1000000000D-04
     Exponent=  2.6788369830D+01 Coefficients=  6.1600000000D-03
     Exponent=  8.2425753324D+00 Coefficients=  1.3030000000D-02
     Exponent=  2.5361770254D+00 Coefficients=  9.9490000000D-02
 S 1 1.00
     Exponent=  7.8036216165D-01 Coefficients=  1.0000000000D+00
 S 1 1.00
     Exponent=  2.4011143435D-01 Coefficients=  1.0000000000D+00
 P 1 1.00
     Exponent=  8.8150000000D-01 Coefficients=  1.0000000000D+00
 P 1 1.00
     Exponent=  1.7989200000D-01 Coefficients=  1.0000000000D+00
 ****
 Centers:       2      3      4      5      7      9     15     16     17     18
 Centers:      20     22     26     27     28     29     31     33     37     38
 Centers:      39     40     42     44     48     49     50     51     53     55
 Centers:      59     60     61     62     64     66     70     71     72     73
 Centers:      75     77     82     83     84     85     87     89     93     94
 Centers:      95     96     98    100    105    108    109    110    111    113
 Centers:     115
 S 6 1.00
     Exponent=  8.8461235339D+03 Coefficients=  5.3000000000D-04
     Exponent=  2.9487078446D+03 Coefficients=  7.7000000000D-04
     Exponent=  9.8290261488D+02 Coefficients=  4.0500000000D-03
     Exponent=  3.2763420496D+02 Coefficients=  1.4030000000D-02
     Exponent=  1.0921140165D+02 Coefficients=  5.3450000000D-02
     Exponent=  3.6403800551D+01 Coefficients=  1.7027000000D-01
 S 1 1.00
     Exponent=  1.2134600184D+01 Coefficients=  1.0000000000D+00
 S 1 1.00
     Exponent=  4.0448667279D+00 Coefficients=  1.0000000000D+00
 S 1 1.00
     Exponent=  1.3482889093D+00 Coefficients=  1.0000000000D+00
 S 1 1.00
     Exponent=  4.4942963643D-01 Coefficients=  1.0000000000D+00
 S 1 1.00
     Exponent=  1.4980987881D-01 Coefficients=  1.0000000000D+00
 P 4 1.00
     Exponent=  3.7294093393D+01 Coefficients=  3.9600000000D-03
     Exponent=  1.1475105659D+01 Coefficients=  1.8890000000D-02
     Exponent=  3.5308017414D+00 Coefficients=  9.4610000000D-02
     Exponent=  1.0864005358D+00 Coefficients=  3.1889000000D-01
 P 1 1.00
     Exponent=  3.3427708794D-01 Coefficients=  1.0000000000D+00
 P 1 1.00
     Exponent=  1.0285448860D-01 Coefficients=  1.0000000000D+00
 D 1 1.00
     Exponent=  4.7750000000D-01 Coefficients=  1.0000000000D+00
 D 1 1.00
     Exponent=  1.1998000000D-01 Coefficients=  1.0000000000D+00
 ****
 Centers:      13     14
 S 7 1.00
     Exponent=  5.9538004301D+04 Coefficients=  9.5000000000D-04
     Exponent=  2.1650183382D+04 Coefficients=  6.1000000000D-04
     Exponent=  7.8727939572D+03 Coefficients=  3.7500000000D-03
     Exponent=  2.8628341663D+03 Coefficients=  9.6300000000D-03
     Exponent=  1.0410306059D+03 Coefficients=  3.2430000000D-02
     Exponent=  3.7855658397D+02 Coefficients=  9.9500000000D-02
     Exponent=  1.3765693962D+02 Coefficients=  2.6570000000D-01
 S 1 1.00
     Exponent=  5.0057068954D+01 Coefficients=  1.0000000000D+00
 S 1 1.00
     Exponent=  1.8202570529D+01 Coefficients=  1.0000000000D+00
 S 1 1.00
     Exponent=  6.6191165560D+00 Coefficients=  1.0000000000D+00
 S 1 1.00
     Exponent=  2.4069514749D+00 Coefficients=  1.0000000000D+00
 S 1 1.00
     Exponent=  8.7525508178D-01 Coefficients=  1.0000000000D+00
 S 1 1.00
     Exponent=  3.1827457519D-01 Coefficients=  1.0000000000D+00
 S 1 1.00
     Exponent=  1.1573620916D-01 Coefficients=  1.0000000000D+00
 S 1 1.00
     Exponent=  4.2085894240D-02 Coefficients=  1.0000000000D+00
 P 5 1.00
     Exponent=  4.8799672315D+02 Coefficients=  2.1600000000D-03
     Exponent=  1.6266557438D+02 Coefficients=  9.7900000000D-03
     Exponent=  5.4221858128D+01 Coefficients=  5.4850000000D-02
     Exponent=  1.8073952709D+01 Coefficients=  2.1770000000D-01
     Exponent=  6.0246509031D+00 Coefficients=  4.8978000000D-01
 P 1 1.00
     Exponent=  2.0082169677D+00 Coefficients=  1.0000000000D+00
 P 1 1.00
     Exponent=  6.6940565590D-01 Coefficients=  1.0000000000D+00
 P 1 1.00
     Exponent=  2.2313521863D-01 Coefficients=  1.0000000000D+00
 P 1 1.00
     Exponent=  7.4378406211D-02 Coefficients=  1.0000000000D+00
 P 1 1.00
     Exponent=  2.4792802070D-02 Coefficients=  1.0000000000D+00
 D 1 1.00
     Exponent=  3.5395000000D-01 Coefficients=  1.0000000000D+00
 D 1 1.00
     Exponent=  8.9098000000D-02 Coefficients=  1.0000000000D+00
 ****
 Centers:      81
 S 8 1.00
     Exponent=  7.5448214551D+05 Coefficients=  4.4300000000D-03
     Exponent=  3.3532539800D+05 Coefficients=  1.9800000000D-03
     Exponent=  1.4903351022D+05 Coefficients=  9.0500000000D-03
     Exponent=  6.6237115655D+04 Coefficients=  4.8700000000D-03
     Exponent=  2.9438718069D+04 Coefficients=  2.0770000000D-02
     Exponent=  1.3083874697D+04 Coefficients=  3.2900000000D-02
     Exponent=  5.8150554210D+03 Coefficients=  7.7010000000D-02
     Exponent=  2.5844690760D+03 Coefficients=  1.5160000000D-01
 S 1 1.00
     Exponent=  1.1486529227D+03 Coefficients=  1.0000000000D+00
 S 1 1.00
     Exponent=  5.1051241008D+02 Coefficients=  1.0000000000D+00
 S 1 1.00
     Exponent=  2.2689440448D+02 Coefficients=  1.0000000000D+00
 S 1 1.00
     Exponent=  1.0084195755D+02 Coefficients=  1.0000000000D+00
 S 1 1.00
     Exponent=  4.4818647798D+01 Coefficients=  1.0000000000D+00
 S 1 1.00
     Exponent=  1.9919399021D+01 Coefficients=  1.0000000000D+00
 S 1 1.00
     Exponent=  8.8530662317D+00 Coefficients=  1.0000000000D+00
 S 1 1.00
     Exponent=  3.9346961030D+00 Coefficients=  1.0000000000D+00
 S 1 1.00
     Exponent=  1.7487538235D+00 Coefficients=  1.0000000000D+00
 S 1 1.00
     Exponent=  7.7722392158D-01 Coefficients=  1.0000000000D+00
 S 1 1.00
     Exponent=  3.4543285403D-01 Coefficients=  1.0000000000D+00
 S 1 1.00
     Exponent=  1.5352571290D-01 Coefficients=  1.0000000000D+00
 S 1 1.00
     Exponent=  6.8233650180D-02 Coefficients=  1.0000000000D+00
 S 1 1.00
     Exponent=  1.3478251887D-02 Coefficients=  1.0000000000D+00
 P 5 1.00
     Exponent=  1.0090658304D+04 Coefficients=  2.7500000000D-03
     Exponent=  4.0362633217D+03 Coefficients=  4.1800000000D-03
     Exponent=  1.6145053287D+03 Coefficients=  2.0890000000D-02
     Exponent=  6.4580213147D+02 Coefficients=  7.1370000000D-02
     Exponent=  2.5832085259D+02 Coefficients=  2.2613000000D-01
 P 1 1.00
     Exponent=  1.0332834104D+02 Coefficients=  1.0000000000D+00
 P 1 1.00
     Exponent=  4.1331336414D+01 Coefficients=  1.0000000000D+00
 P 1 1.00
     Exponent=  1.6532534566D+01 Coefficients=  1.0000000000D+00
 P 1 1.00
     Exponent=  6.6130138263D+00 Coefficients=  1.0000000000D+00
 P 1 1.00
     Exponent=  2.6452055305D+00 Coefficients=  1.0000000000D+00
 P 1 1.00
     Exponent=  1.0580822122D+00 Coefficients=  1.0000000000D+00
 P 1 1.00
     Exponent=  4.2323288488D-01 Coefficients=  1.0000000000D+00
 P 1 1.00
     Exponent=  1.6929315395D-01 Coefficients=  1.0000000000D+00
 P 1 1.00
     Exponent=  6.7717261581D-02 Coefficients=  1.0000000000D+00
 P 1 1.00
     Exponent=  2.7086904632D-02 Coefficients=  1.0000000000D+00
 P 1 1.00
     Exponent=  1.0834761853D-02 Coefficients=  1.0000000000D+00
 D 4 1.00
     Exponent=  5.5430250651D+02 Coefficients=  4.3700000000D-03
     Exponent=  2.0156454782D+02 Coefficients=  2.5110000000D-02
     Exponent=  7.3296199207D+01 Coefficients=  1.3316000000D-01
     Exponent=  2.6653163348D+01 Coefficients=  3.8900000000D-01
 D 1 1.00
     Exponent=  9.6920593993D+00 Coefficients=  1.0000000000D+00
 D 1 1.00
     Exponent=  3.5243852361D+00 Coefficients=  1.0000000000D+00
 D 1 1.00
     Exponent=  1.2815946313D+00 Coefficients=  1.0000000000D+00
 D 1 1.00
     Exponent=  4.6603441139D-01 Coefficients=  1.0000000000D+00
 D 1 1.00
     Exponent=  1.6946705869D-01 Coefficients=  1.0000000000D+00
 F 1 1.00
     Exponent=  1.3140000000D+00 Coefficients=  1.0000000000D+00
 F 1 1.00
     Exponent=  1.9993000000D-01 Coefficients=  1.0000000000D+00
 ****
 Centers:       1
 S 9 1.00
     Exponent=  2.1644816090D+06 Coefficients=  1.2320000000D-02
     Exponent=  1.0822408045D+06 Coefficients=  1.2970000000D-02
     Exponent=  5.4112040224D+05 Coefficients=  2.6370000000D-02
     Exponent=  2.7056020112D+05 Coefficients=  9.0400000000D-03
     Exponent=  1.3528010056D+05 Coefficients=  3.4980000000D-02
     Exponent=  6.7640050280D+04 Coefficients=  1.2220000000D-02
     Exponent=  3.3820025140D+04 Coefficients=  6.0520000000D-02
     Exponent=  1.6910012570D+04 Coefficients=  6.4930000000D-02
     Exponent=  8.4550062850D+03 Coefficients=  1.3819000000D-01
 S 1 1.00
     Exponent=  4.2275031425D+03 Coefficients=  1.0000000000D+00
 S 1 1.00
     Exponent=  2.1137515713D+03 Coefficients=  1.0000000000D+00
 S 1 1.00
     Exponent=  1.0568757856D+03 Coefficients=  1.0000000000D+00
 S 1 1.00
     Exponent=  5.2843789281D+02 Coefficients=  1.0000000000D+00
 S 1 1.00
     Exponent=  2.6421894641D+02 Coefficients=  1.0000000000D+00
 S 1 1.00
     Exponent=  1.3210947320D+02 Coefficients=  1.0000000000D+00
 S 1 1.00
     Exponent=  6.6054736602D+01 Coefficients=  1.0000000000D+00
 S 1 1.00
     Exponent=  3.3027368301D+01 Coefficients=  1.0000000000D+00
 S 1 1.00
     Exponent=  1.6513684150D+01 Coefficients=  1.0000000000D+00
 S 1 1.00
     Exponent=  8.2568420752D+00 Coefficients=  1.0000000000D+00
 S 1 1.00
     Exponent=  4.1284210376D+00 Coefficients=  1.0000000000D+00
 S 1 1.00
     Exponent=  2.0642105188D+00 Coefficients=  1.0000000000D+00
 S 1 1.00
     Exponent=  1.0321052594D+00 Coefficients=  1.0000000000D+00
 S 1 1.00
     Exponent=  5.1605262970D-01 Coefficients=  1.0000000000D+00
 S 1 1.00
     Exponent=  2.5802631485D-01 Coefficients=  1.0000000000D+00
 S 1 1.00
     Exponent=  1.2901315743D-01 Coefficients=  1.0000000000D+00
 S 1 1.00
     Exponent=  6.4506578713D-02 Coefficients=  1.0000000000D+00
 P 7 1.00
     Exponent=  3.2357915258D+04 Coefficients=  5.0200000000D-03
     Exponent=  1.4381295670D+04 Coefficients=  2.0200000000D-03
     Exponent=  6.3916869645D+03 Coefficients=  1.8070000000D-02
     Exponent=  2.8407497620D+03 Coefficients=  3.6620000000D-02
     Exponent=  1.2625554498D+03 Coefficients=  1.1172000000D-01
     Exponent=  5.6113575545D+02 Coefficients=  2.5586000000D-01
     Exponent=  2.4939366909D+02 Coefficients=  4.2608000000D-01
 P 1 1.00
     Exponent=  1.1084163071D+02 Coefficients=  1.0000000000D+00
 P 1 1.00
     Exponent=  4.9262946981D+01 Coefficients=  1.0000000000D+00
 P 1 1.00
     Exponent=  2.1894643103D+01 Coefficients=  1.0000000000D+00
 P 1 1.00
     Exponent=  9.7309524900D+00 Coefficients=  1.0000000000D+00
 P 1 1.00
     Exponent=  4.3248677733D+00 Coefficients=  1.0000000000D+00
 P 1 1.00
     Exponent=  1.9221634548D+00 Coefficients=  1.0000000000D+00
 P 1 1.00
     Exponent=  8.5429486881D-01 Coefficients=  1.0000000000D+00
 P 1 1.00
     Exponent=  3.7968660836D-01 Coefficients=  1.0000000000D+00
 P 1 1.00
     Exponent=  1.6874960372D-01 Coefficients=  1.0000000000D+00
 P 1 1.00
     Exponent=  7.4999823874D-02 Coefficients=  1.0000000000D+00
 P 1 1.00
     Exponent=  3.3333255055D-02 Coefficients=  1.0000000000D+00
 D 5 1.00
     Exponent=  1.9119003508D+03 Coefficients=  4.3300000000D-03
     Exponent=  7.6476014031D+02 Coefficients=  1.7780000000D-02
     Exponent=  3.0590405613D+02 Coefficients=  8.9710000000D-02
     Exponent=  1.2236162245D+02 Coefficients=  3.1123000000D-01
     Exponent=  4.8944648980D+01 Coefficients=  5.3206000000D-01
 D 1 1.00
     Exponent=  1.9577859592D+01 Coefficients=  1.0000000000D+00
 D 1 1.00
     Exponent=  7.8311438368D+00 Coefficients=  1.0000000000D+00
 D 1 1.00
     Exponent=  3.1324575347D+00 Coefficients=  1.0000000000D+00
 D 1 1.00
     Exponent=  1.2529830139D+00 Coefficients=  1.0000000000D+00
 D 1 1.00
     Exponent=  5.0119320556D-01 Coefficients=  1.0000000000D+00
 D 1 1.00
     Exponent=  2.0047728222D-01 Coefficients=  1.0000000000D+00
 D 1 1.00
     Exponent=  8.0190912889D-02 Coefficients=  1.0000000000D+00
 D 1 1.00
     Exponent=  3.2076365156D-02 Coefficients=  1.0000000000D+00
 F 4 1.00
     Exponent=  8.2289680979D+01 Coefficients=  6.1870000000D-02
     Exponent=  2.9923520356D+01 Coefficients=  2.4823000000D-01
     Exponent=  1.0881280130D+01 Coefficients=  4.9956000000D-01
     Exponent=  3.9568291380D+00 Coefficients=  4.0380000000D-01
 F 1 1.00
     Exponent=  1.4388469593D+00 Coefficients=  1.0000000000D+00
 F 1 1.00
     Exponent=  5.2321707610D-01 Coefficients=  1.0000000000D+00
 G 1 1.00
     Exponent=  2.6700000000D+00 Coefficients=  1.0000000000D+00
 G 1 1.00
     Exponent=  9.0960000000D-01 Coefficients=  1.0000000000D+00
 ****
 Warning:  center 104 has no basis functions!
 Ernie: Thresh=  0.10000D-02 Tol=  0.10000D-05 Strict=F.
 There are  2468 symmetry adapted cartesian basis functions of A   symmetry.
 There are  2300 symmetry adapted basis functions of A   symmetry.
  2300 basis functions,  3683 primitive gaussians,  2468 cartesian basis functions
   296 alpha electrons      296 beta electrons
       nuclear repulsion energy     17432.5694146133 Hartrees.



 Warning!  S  atom  104 has 16 valence electrons but only   0 basis functions.
 This is less than a minimal basis set!



 IExCor= 1009 DFT=T Ex=PBE Corr=PBE ExCW=0 ScaHFX=  0.000000
 ScaDFX=  1.000000  1.000000  1.000000  1.000000 ScalE2=  1.000000  1.000000
 IRadAn=      0 IRanWt=     -1 IRanGd=            0 ICorTp=0 IEmpDi=  4
 NAtoms=  118 NActive=  118 NUniq=  118 SFac= 1.00D+00 NAtFMM=   60 NAOKFM=T Big=T
 Integral buffers will be    131072 words long.
 Raffenetti 2 integral format.
 Two-electron integral symmetry is turned on.
 ------------------------------------------------------------------------------
 Polarizable Continuum Model (PCM)
 =================================
 Model                : PCM (using non-symmetric T matrix).
 Atomic radii         : UFF (Universal Force Field).
 Polarization charges : Total charges.
 Charge compensation  : None.
 Solution method      : On-the-fly selection.
 Cavity type          : Scaled VdW (van der Waals Surface) (Alpha=1.100).
 Cavity algorithm     : GePol (No added spheres)
                        Default sphere list used, NSphG=  118.
                        Lebedev-Laikov grids with approx.  5.0 points / Ang**2.
                        Smoothing algorithm: Karplus/York (Gamma=1.0000).
                        Polarization charges: spherical gaussians, with
                                              point-specific exponents (IZeta= 3).
                        Self-potential: point-specific (ISelfS= 7).
                        Self-field    : sphere-specific E.n sum rule (ISelfD= 2).
 Solvent              : Dichloromethane, Eps=   8.930000 Eps(inf)=   2.028346
 ------------------------------------------------------------------------------
 GePol: Number of generator spheres                  =     118
 GePol: Total number of spheres                      =     118
 GePol: Number of exposed spheres                    =     118 (100.00%)
 GePol: Number of points                             =    8251
 GePol: Average weight of points                     =       0.12
 GePol: Minimum weight of points                     =   0.97D-11
 GePol: Maximum weight of points                     =    0.21838
 GePol: Number of points with low weight             =     647
 GePol: Fraction of low-weight points (<1% of avg)   =       7.84%
 GePol: Cavity surface area                          =   1024.336 Ang**2
 GePol: Cavity volume                                =   1300.317 Ang**3
 Leave Link  301 at Sat Apr 11 11:34:02 2020, MaxMem=  4026531840 cpu:        13.3
 (Enter /scr/programs/g09/l302.exe)
 NPDir=0 NMtPBC=     1 NCelOv=     1 NCel=       1 NClECP=     1 NCelD=      1
         NCelK=      1 NCelE2=     1 NClLst=     1 CellRange=     0.0.
 One-electron integrals computed using PRISM.
 NBasis=  2300 RedAO= T EigKep=  1.41D-06  NBF=  2300
 NBsUse=  2300 1.00D-06 EigRej= -1.00D+00 NBFU=  2300
 Precomputing XC quadrature grid using
 IXCGrd= 4 IRadAn=           0 IRanWt=          -1 IRanGd=           0 AccXCQ= 0.00D+00.
 Defaulting to unpruned grid for atomic number  78.
 Defaulting to unpruned grid for atomic number  50.
 Generated NRdTot=       0 NPtTot=           0 NUsed=           0 NTot=          32
 NSgBfM=  2041  2042  2046  2047  2048 MxSgAt=   118 MxSgA2=   117.
 Leave Link  302 at Sat Apr 11 11:34:40 2020, MaxMem=  4026531840 cpu:       908.4
 (Enter /scr/programs/g09/l308.exe)
 Leave Link  308 at Sat Apr 11 11:34:45 2020, MaxMem=  4026531840 cpu:        98.1
 (Enter /scr/programs/g09/l303.exe)
 DipDrv:  MaxL=1.
 Leave Link  303 at Sat Apr 11 11:34:47 2020, MaxMem=  4026531840 cpu:        55.8
 (Enter /scr/programs/g09/l401.exe)
 ExpMin= 1.08D-02 ExpMax= 2.16D+06 ExpMxC= 2.16D+06 IAcc=4 IRadAn=    199590 AccDes= 0.00D+00
 Harris functional with IExCor= 1009 and IRadAn=  199590 diagonalized for initial guess.
 HarFok:  IExCor= 1009 AccDes= 0.00D+00 IRadAn=    199590 IDoV= 1 UseB2=F ITyADJ=14
 ICtDFT=  3500011 ScaDFX=  1.000000  1.000000  1.000000  1.000000
 FoFCou: FMM=F IPFlag=           0 FMFlag=      100000 FMFlg1=        2001
         NFxFlg=           0 DoJE=T BraDBF=F KetDBF=T FulRan=T
         wScrn=  0.000000 ICntrl=     500 IOpCl=  0 I1Cent=   200000004 NGrid=           0
         NMat0=    1 NMatS0=      1 NMatT0=    0 NMatD0=    1 NMtDS0=    0 NMtDT0=    0
 Petite list used in FoFCou.
 Harris En= -26319.1423881670    
 JPrj=0 DoOrth=F DoCkMO=F.
 Leave Link  401 at Sat Apr 11 11:38:46 2020, MaxMem=  4026531840 cpu:      5714.5
 (Enter /scr/programs/g09/l502.exe)
 Closed shell SCF:
 Using DIIS extrapolation, IDIIS=  1040.
 Integral symmetry usage will be decided dynamically.
 IVT=    18604718 IEndB=    18604718 NGot=  4026531840 MDV=  4014271615
 LenX=  4014271615 LenY=  4008178123
 Requested convergence on RMS density matrix=1.00D-02 within 500 cycles.
 Requested convergence on MAX density matrix=1.00D+00.
 Requested convergence on             energy=1.00D+00.
 No special actions if energy rises.
 Fock matrices will be formed incrementally for  20 cycles.

 Cycle   1  Pass 1  IDiag  1:
 FoFJK:  IHMeth= 1 ICntrl=     500 DoSepK=F KAlg= 0 I1Cent=   0 FoldK=F
 IRaf= 580000000 NMat=   1 IRICut=       1 DoRegI=T DoRafI=F ISym2E= 0.
 FoFCou: FMM=T IPFlag=           0 FMFlag=      100000 FMFlg1=        2001
         NFxFlg=           0 DoJE=T BraDBF=F KetDBF=F FulRan=T
         wScrn=  0.000000 ICntrl=     500 IOpCl=  0 I1Cent=           0 NGrid=           0
         NMat0=    1 NMatS0=      1 NMatT0=    0 NMatD0=    1 NMtDS0=    0 NMtDT0=    0
 Symmetry not used in FoFCou.
 FMM levels:  10  Number of levels for PrismC:   9
 Defaulting to unpruned grid for atomic number  78.
 Defaulting to unpruned grid for atomic number  78.
 Defaulting to unpruned grid for atomic number  78.
 Defaulting to unpruned grid for atomic number  78.
 Defaulting to unpruned grid for atomic number  78.
 Defaulting to unpruned grid for atomic number  78.
 Defaulting to unpruned grid for atomic number  78.
 Defaulting to unpruned grid for atomic number  78.
 Defaulting to unpruned grid for atomic number  78.
 Defaulting to unpruned grid for atomic number  78.
 Defaulting to unpruned grid for atomic number  78.
 Defaulting to unpruned grid for atomic number  78.
 Defaulting to unpruned grid for atomic number  78.
 Defaulting to unpruned grid for atomic number  78.
 Defaulting to unpruned grid for atomic number  78.
 Defaulting to unpruned grid for atomic number  78.
 Defaulting to unpruned grid for atomic number  78.
 Defaulting to unpruned grid for atomic number  78.
 Defaulting to unpruned grid for atomic number  78.
 Defaulting to unpruned grid for atomic number  78.
 Defaulting to unpruned grid for atomic number  78.
 Defaulting to unpruned grid for atomic number  78.
 Defaulting to unpruned grid for atomic number  78.
 Defaulting to unpruned grid for atomic number  78.
 Inv3:  Mode=1 IEnd=   204237003.
 Iteration    1 A*A^-1 deviation from unit magnitude is 1.21D-14 for   1596.
 Iteration    1 A*A^-1 deviation from orthogonality  is 1.27D-14 for   5798   2745.
 Iteration    1 A^-1*A deviation from unit magnitude is 1.35D-14 for   5655.
 Iteration    1 A^-1*A deviation from orthogonality  is 1.72D-11 for   6319   6261.
 E= -26167.1425769021    
 DIIS: error= 1.10D-01 at cycle   1 NSaved=   1.
 NSaved= 1 IEnMin= 1 EnMin= -26167.1425769021     IErMin= 1 ErrMin= 1.10D-01
 ErrMax= 1.10D-01  0.00D+00 EMaxC= 1.00D-01 BMatC= 3.42D+02 BMatP= 3.42D+02
 IDIUse=3 WtCom= 0.00D+00 WtEn= 1.00D+00
 Coeff-Com:  0.100D+01
 Coeff-En:   0.100D+01
 Coeff:      0.100D+01
 Gap=     0.048 Goal=   None    Shift=    0.000
 GapD=    0.048 DampG=0.250 DampE=0.125 DampFc=0.1250 IDamp=-1.
 Damping current iteration by 1.25D-01
 RMSDP=1.16D+01 MaxDP=7.17D+03              OVMax= 9.55D-01

 Cycle   2  Pass 1  IDiag  1:
 RMSU=  1.30D+00    CP:  1.71D+00
 E= -26171.8610518353     Delta-E=       -4.718474933245 Rises=F Damp=T
 DIIS: error= 9.33D-02 at cycle   2 NSaved=   2.
 NSaved= 2 IEnMin= 2 EnMin= -26171.8610518353     IErMin= 2 ErrMin= 9.33D-02
 ErrMax= 9.33D-02  0.00D+00 EMaxC= 1.00D-01 BMatC= 2.42D+02 BMatP= 3.42D+02
 IDIUse=3 WtCom= 6.70D-02 WtEn= 9.33D-01
 Coeff-Com: -0.377D+01 0.477D+01
 Coeff-En:   0.121D+00 0.879D+00
 Coeff:     -0.140D+00 0.114D+01
 Gap=    -0.347 Goal=   None    Shift=    0.000
 RMSDP=7.12D+00 MaxDP=3.36D+03 DE=-4.72D+00 OVMax= 9.80D-01

 Cycle   3  Pass 1  IDiag  1:
 RMSU=  4.69D+00    CP:  3.00D+00  3.00D+00
 E= -26150.8503665693     Delta-E=       21.010685266039 Rises=F Damp=F
 DIIS: error= 7.16D-02 at cycle   3 NSaved=   3.
 NSaved= 3 IEnMin= 2 EnMin= -26171.8610518353     IErMin= 3 ErrMin= 7.16D-02
 ErrMax= 7.16D-02  0.00D+00 EMaxC= 1.00D-01 BMatC= 4.19D+01 BMatP= 2.42D+02
 IDIUse=3 WtCom= 2.84D-01 WtEn= 7.16D-01
 EnCoef did     7 forward-backward iterations
 Coeff-Com: -0.617D+00 0.940D+00 0.677D+00
 Coeff-En:   0.688D-01 0.624D+00 0.307D+00
 Coeff:     -0.126D+00 0.714D+00 0.412D+00
 Gap=     0.316 Goal=   None    Shift=    0.000
 RMSDP=8.33D+00 MaxDP=1.14D+03 DE= 2.10D+01 OVMax= 9.97D-01

 Cycle   4  Pass 1  IDiag  1:
 RMSU=  7.92D+00    CP:  3.00D+00  3.00D+00  1.55D+00
 E= -26018.2179989272     Delta-E=      132.632367642043 Rises=F Damp=F
 DIIS: error= 7.57D-02 at cycle   4 NSaved=   4.
 NSaved= 4 IEnMin= 2 EnMin= -26171.8610518353     IErMin= 3 ErrMin= 7.16D-02
 ErrMax= 7.57D-02  0.00D+00 EMaxC= 1.00D-01 BMatC= 8.15D+01 BMatP= 4.19D+01
 IDIUse=2 WtCom= 0.00D+00 WtEn= 1.00D+00
 EnCoef did   100 forward-backward iterations
 Coeff-En:   0.321D+00 0.945D-02 0.485D+00 0.185D+00
 Coeff:      0.321D+00 0.945D-02 0.485D+00 0.185D+00
 Gap=    -0.333 Goal=   None    Shift=    0.000
 RMSDP=8.23D+01 MaxDP=1.14D+04 DE= 1.33D+02 OVMax= 8.88D-01

 Cycle   5  Pass 1  IDiag  1:
 RMSU=  7.29D+01    CP:  3.00D+00  3.00D+00  3.00D+00  3.00D+00
 E= -26174.2709130445     Delta-E=     -156.052914117252 Rises=F Damp=F
 DIIS: error= 2.06D-01 at cycle   5 NSaved=   5.
 NSaved= 5 IEnMin= 5 EnMin= -26174.2709130445     IErMin= 3 ErrMin= 7.16D-02
 ErrMax= 2.06D-01  0.00D+00 EMaxC= 1.00D-01 BMatC= 5.15D+01 BMatP= 4.19D+01
 IDIUse=2 WtCom= 0.00D+00 WtEn= 1.00D+00
 EnCoef did   100 forward-backward iterations
 Coeff-En:   0.253D+00 0.464D-02 0.241D+00 0.000D+00 0.501D+00
 Coeff:      0.253D+00 0.464D-02 0.241D+00 0.000D+00 0.501D+00
 Gap=     0.037 Goal=   None    Shift=    0.000
 RMSDP=2.08D+02 MaxDP=2.80D+04 DE=-1.56D+02 OVMax= 9.90D-01

 Cycle   6  Pass 1  IDiag  1:
 RMSU=  2.07D+02    CP:  3.00D+00  3.00D+00  3.00D+00  3.00D+00  1.30D+00
 E= -26147.5444553076     Delta-E=       26.726457736841 Rises=F Damp=F
 DIIS: error= 3.47D-01 at cycle   6 NSaved=   6.
 NSaved= 6 IEnMin= 5 EnMin= -26174.2709130445     IErMin= 3 ErrMin= 7.16D-02
 ErrMax= 3.47D-01  0.00D+00 EMaxC= 1.00D-01 BMatC= 1.28D+02 BMatP= 4.19D+01
 IDIUse=2 WtCom= 0.00D+00 WtEn= 1.00D+00
 Coeff-En:   0.000D+00 0.000D+00 0.000D+00 0.000D+00 0.580D+00 0.420D+00
 Coeff:      0.000D+00 0.000D+00 0.000D+00 0.000D+00 0.580D+00 0.420D+00
 Gap=     0.399 Goal=   None    Shift=    0.000
 RMSDP=9.47D+01 MaxDP=9.29D+03 DE= 2.67D+01 OVMax= 9.95D-01

 Cycle   7  Pass 1  IDiag  1:
 RMSU=  9.08D+01    CP:  3.00D+00  3.00D+00  3.00D+00  3.00D+00  1.24D+00
                    CP:  8.72D-01
 E= -25913.9914438992     Delta-E=      233.553011408432 Rises=F Damp=F
 DIIS: error= 1.82D-01 at cycle   7 NSaved=   7.
 NSaved= 7 IEnMin= 5 EnMin= -26174.2709130445     IErMin= 3 ErrMin= 7.16D-02
 ErrMax= 1.82D-01  0.00D+00 EMaxC= 1.00D-01 BMatC= 2.91D+02 BMatP= 4.19D+01
 IDIUse=2 WtCom= 0.00D+00 WtEn= 1.00D+00
 EnCoef did     7 forward-backward iterations
 Coeff-En:   0.000D+00 0.000D+00 0.000D+00 0.000D+00 0.390D+00 0.460D+00
 Coeff-En:   0.151D+00
 Coeff:      0.000D+00 0.000D+00 0.000D+00 0.000D+00 0.390D+00 0.460D+00
 Coeff:      0.151D+00
 Gap=     0.134 Goal=   None    Shift=    0.000
 RMSDP=3.53D+01 MaxDP=3.21D+03 DE= 2.34D+02 OVMax= 9.95D-01

 Cycle   8  Pass 1  IDiag  1:
 RMSU=  3.42D+01    CP:  3.00D+00  3.00D+00  3.00D+00  3.00D+00  1.24D+00
                    CP:  8.30D-01  9.90D-01
 E= -26104.5825444268     Delta-E=     -190.591100527585 Rises=F Damp=F
 DIIS: error= 1.94D-01 at cycle   8 NSaved=   8.
 NSaved= 8 IEnMin= 5 EnMin= -26174.2709130445     IErMin= 3 ErrMin= 7.16D-02
 ErrMax= 1.94D-01  0.00D+00 EMaxC= 1.00D-01 BMatC= 1.29D+02 BMatP= 4.19D+01
 IDIUse=2 WtCom= 0.00D+00 WtEn= 1.00D+00
 EnCoef did     2 forward-backward iterations
 Coeff-En:   0.000D+00 0.000D+00 0.000D+00 0.000D+00 0.000D+00 0.412D+00
 Coeff-En:   0.215D+00 0.373D+00
 Coeff:      0.000D+00 0.000D+00 0.000D+00 0.000D+00 0.000D+00 0.412D+00
 Coeff:      0.215D+00 0.373D+00
 Gap=    -0.400 Goal=   None    Shift=    0.000
 RMSDP=3.75D+01 MaxDP=2.56D+03 DE=-1.91D+02 OVMax= 9.98D-01

 Cycle   9  Pass 1  IDiag  1:
 RMSU=  3.63D+01    CP:  3.00D+00  3.00D+00  3.00D+00  3.00D+00  1.25D+00
                    CP:  8.23D-01  9.87D-01  1.26D+00
 E= -26218.8120353745     Delta-E=     -114.229490947677 Rises=F Damp=F
 DIIS: error= 1.88D-01 at cycle   9 NSaved=   9.
 NSaved= 9 IEnMin= 9 EnMin= -26218.8120353745     IErMin= 3 ErrMin= 7.16D-02
 ErrMax= 1.88D-01  0.00D+00 EMaxC= 1.00D-01 BMatC= 6.67D+01 BMatP= 4.19D+01
 IDIUse=2 WtCom= 0.00D+00 WtEn= 1.00D+00
 EnCoef did     3 forward-backward iterations
 Coeff-En:   0.000D+00 0.000D+00 0.000D+00 0.000D+00 0.000D+00 0.000D+00
 Coeff-En:   0.388D-01 0.369D+00 0.592D+00
 Coeff:      0.000D+00 0.000D+00 0.000D+00 0.000D+00 0.000D+00 0.000D+00
 Coeff:      0.388D-01 0.369D+00 0.592D+00
 Gap=    -0.781 Goal=   None    Shift=    0.000
 RMSDP=5.82D+01 MaxDP=6.33D+03 DE=-1.14D+02 OVMax= 9.99D-01

 Cycle  10  Pass 1  IDiag  1:
 RMSU=  5.01D+01    CP:  3.00D+00  3.00D+00  3.00D+00  3.00D+00  1.33D+00
                    CP:  9.45D-01  9.49D-01  1.21D+00  1.37D+00
 E= -25811.9864552116     Delta-E=      406.825580162898 Rises=F Damp=F
 DIIS: error= 2.93D-01 at cycle  10 NSaved=  10.
 NSaved=10 IEnMin= 9 EnMin= -26218.8120353745     IErMin= 3 ErrMin= 7.16D-02
 ErrMax= 2.93D-01  0.00D+00 EMaxC= 1.00D-01 BMatC= 3.65D+02 BMatP= 4.19D+01
 IDIUse=2 WtCom= 0.00D+00 WtEn= 1.00D+00
 EnCoef did     5 forward-backward iterations
 Coeff-En:   0.000D+00 0.000D+00 0.000D+00 0.000D+00 0.000D+00 0.000D+00
 Coeff-En:   0.000D+00 0.311D+00 0.583D+00 0.106D+00
 Coeff:      0.000D+00 0.000D+00 0.000D+00 0.000D+00 0.000D+00 0.000D+00
 Coeff:      0.000D+00 0.311D+00 0.583D+00 0.106D+00
 Gap=     0.125 Goal=   None    Shift=    0.000
 RMSDP=8.79D+00 MaxDP=8.93D+02 DE= 4.07D+02 OVMax= 9.98D-01

 Cycle  11  Pass 1  IDiag  1:
 RMSU=  8.38D+00    CP:  3.00D+00  3.00D+00  3.00D+00  3.00D+00  1.33D+00
                    CP:  9.38D-01  9.53D-01  1.27D+00  1.36D+00  1.00D+00
 E= -26245.0748984450     Delta-E=     -433.088443233370 Rises=F Damp=F
 DIIS: error= 1.18D-01 at cycle  11 NSaved=  11.
 NSaved=11 IEnMin=11 EnMin= -26245.0748984450     IErMin= 3 ErrMin= 7.16D-02
 ErrMax= 1.18D-01  0.00D+00 EMaxC= 1.00D-01 BMatC= 4.71D+01 BMatP= 4.19D+01
 IDIUse=2 WtCom= 0.00D+00 WtEn= 1.00D+00
 EnCoef did    10 forward-backward iterations
 Coeff-En:   0.000D+00 0.000D+00 0.000D+00 0.000D+00 0.000D+00 0.000D+00
 Coeff-En:   0.000D+00 0.103D+00 0.460D+00 0.000D+00 0.437D+00
 Coeff:      0.000D+00 0.000D+00 0.000D+00 0.000D+00 0.000D+00 0.000D+00
 Coeff:      0.000D+00 0.103D+00 0.460D+00 0.000D+00 0.437D+00
 Gap=     0.015 Goal=   None    Shift=    0.000
 RMSDP=1.59D+01 MaxDP=1.68D+03 DE=-4.33D+02 OVMax= 9.99D-01

 Cycle  12  Pass 1  IDiag  1:
 RMSU=  1.22D+01    CP:  3.00D+00  3.00D+00  3.00D+00  3.00D+00  1.30D+00
                    CP:  9.10D-01  9.71D-01  1.31D+00  1.30D+00  9.72D-01
                    CP:  1.88D+00
 E= -26162.5646149579     Delta-E=       82.510283487063 Rises=F Damp=F
 DIIS: error= 1.82D-01 at cycle  12 NSaved=  12.
 NSaved=12 IEnMin=11 EnMin= -26245.0748984450     IErMin= 3 ErrMin= 7.16D-02
 ErrMax= 1.82D-01  0.00D+00 EMaxC= 1.00D-01 BMatC= 7.95D+01 BMatP= 4.19D+01
 IDIUse=2 WtCom= 0.00D+00 WtEn= 1.00D+00
 EnCoef did     2 forward-backward iterations
 Coeff-En:   0.000D+00 0.000D+00 0.000D+00 0.000D+00 0.000D+00 0.000D+00
 Coeff-En:   0.000D+00 0.000D+00 0.393D+00 0.000D+00 0.429D+00 0.178D+00
 Coeff:      0.000D+00 0.000D+00 0.000D+00 0.000D+00 0.000D+00 0.000D+00
 Coeff:      0.000D+00 0.000D+00 0.393D+00 0.000D+00 0.429D+00 0.178D+00
 Gap=    -0.149 Goal=   None    Shift=    0.000
 RMSDP=1.06D+01 MaxDP=1.09D+03 DE= 8.25D+01 OVMax= 9.76D-01

 Cycle  13  Pass 1  IDiag  1:
 RMSU=  7.95D+00    CP:  3.00D+00  3.00D+00  3.00D+00  3.00D+00  1.29D+00
                    CP:  8.95D-01  9.75D-01  1.29D+00  1.29D+00  9.75D-01
                    CP:  2.43D+00  1.34D+00
 E= -26298.4542696042     Delta-E=     -135.889654646344 Rises=F Damp=F
 DIIS: error= 2.27D-01 at cycle  13 NSaved=  13.
 NSaved=13 IEnMin=13 EnMin= -26298.4542696042     IErMin= 3 ErrMin= 7.16D-02
 ErrMax= 2.27D-01  0.00D+00 EMaxC= 1.00D-01 BMatC= 6.04D+01 BMatP= 4.19D+01
 IDIUse=2 WtCom= 0.00D+00 WtEn= 1.00D+00
 EnCoef did    22 forward-backward iterations
 Coeff-En:   0.000D+00 0.000D+00 0.000D+00 0.000D+00 0.000D+00 0.000D+00
 Coeff-En:   0.000D+00 0.000D+00 0.196D+00 0.104D+00 0.155D-02 0.268D-01
 Coeff-En:   0.672D+00
 Coeff:      0.000D+00 0.000D+00 0.000D+00 0.000D+00 0.000D+00 0.000D+00
 Coeff:      0.000D+00 0.000D+00 0.196D+00 0.104D+00 0.155D-02 0.268D-01
 Coeff:      0.672D+00
 Gap=    -0.221 Goal=   None    Shift=    0.000
 RMSDP=4.47D+01 MaxDP=4.23D+03 DE=-1.36D+02 OVMax= 9.97D-01

 Cycle  14  Pass 1  IDiag  1:
 RMSU=  3.90D+01    CP:  3.00D+00  3.00D+00  3.00D+00  3.00D+00  1.29D+00
                    CP:  9.11D-01  9.56D-01  1.18D+00  1.28D+00  1.08D+00
                    CP:  2.84D+00  2.45D+00  2.86D+00
 E= -26094.8880097958     Delta-E=      203.566259808395 Rises=F Damp=F
 DIIS: error= 2.86D-01 at cycle  14 NSaved=  14.
 NSaved=14 IEnMin=13 EnMin= -26298.4542696042     IErMin= 3 ErrMin= 7.16D-02
 ErrMax= 2.86D-01  0.00D+00 EMaxC= 1.00D-01 BMatC= 2.44D+02 BMatP= 4.19D+01
 IDIUse=2 WtCom= 0.00D+00 WtEn= 1.00D+00
 Coeff-En:   0.000D+00 0.000D+00 0.000D+00 0.000D+00 0.000D+00 0.000D+00
 Coeff-En:   0.000D+00 0.000D+00 0.000D+00 0.000D+00 0.000D+00 0.000D+00
 Coeff-En:   0.725D+00 0.275D+00
 Coeff:      0.000D+00 0.000D+00 0.000D+00 0.000D+00 0.000D+00 0.000D+00
 Coeff:      0.000D+00 0.000D+00 0.000D+00 0.000D+00 0.000D+00 0.000D+00
 Coeff:      0.725D+00 0.275D+00
 Gap=     0.079 Goal=   None    Shift=    0.000
 RMSDP=4.55D+01 MaxDP=6.53D+03 DE= 2.04D+02 OVMax= 1.00D+00

 Cycle  15  Pass 1  IDiag  1:
 RMSU=  4.04D+01    CP:  3.00D+00  3.00D+00  3.00D+00  3.00D+00  1.29D+00
                    CP:  9.19D-01  9.43D-01  1.12D+00  1.27D+00  1.16D+00
                    CP:  3.00D+00  2.99D+00  3.00D+00  1.47D+00
 E= -26319.1729292684     Delta-E=     -224.284919472542 Rises=F Damp=F
 DIIS: error= 3.68D-01 at cycle  15 NSaved=  15.
 NSaved=15 IEnMin=15 EnMin= -26319.1729292684     IErMin= 3 ErrMin= 7.16D-02
 ErrMax= 3.68D-01  0.00D+00 EMaxC= 1.00D-01 BMatC= 9.22D+01 BMatP= 4.19D+01
 IDIUse=2 WtCom= 0.00D+00 WtEn= 1.00D+00
 EnCoef did     4 forward-backward iterations
 Coeff-En:   0.000D+00 0.000D+00 0.000D+00 0.000D+00 0.000D+00 0.000D+00
 Coeff-En:   0.000D+00 0.000D+00 0.000D+00 0.000D+00 0.000D+00 0.000D+00
 Coeff-En:   0.425D+00 0.176D+00 0.399D+00
 Coeff:      0.000D+00 0.000D+00 0.000D+00 0.000D+00 0.000D+00 0.000D+00
 Coeff:      0.000D+00 0.000D+00 0.000D+00 0.000D+00 0.000D+00 0.000D+00
 Coeff:      0.425D+00 0.176D+00 0.399D+00
 Gap=     0.083 Goal=   None    Shift=    0.000
 RMSDP=2.28D+01 MaxDP=4.64D+03 DE=-2.24D+02 OVMax= 9.93D-01

 Cycle  16  Pass 1  IDiag  1:
 RMSU=  1.67D+01    CP:  3.00D+00  3.00D+00  3.00D+00  3.00D+00  1.27D+00
                    CP:  9.01D-01  9.31D-01  1.11D+00  1.22D+00  1.16D+00
                    CP:  3.00D+00  3.00D+00  3.00D+00  1.65D+00  1.32D+00
 E= -26174.7267424959     Delta-E=      144.446186772482 Rises=F Damp=F
 DIIS: error= 2.50D-01 at cycle  16 NSaved=  16.
 NSaved=16 IEnMin=15 EnMin= -26319.1729292684     IErMin= 3 ErrMin= 7.16D-02
 ErrMax= 2.50D-01  0.00D+00 EMaxC= 1.00D-01 BMatC= 1.86D+02 BMatP= 4.19D+01
 IDIUse=2 WtCom= 0.00D+00 WtEn= 1.00D+00
 Coeff-En:   0.000D+00 0.000D+00 0.000D+00 0.000D+00 0.000D+00 0.000D+00
 Coeff-En:   0.000D+00 0.000D+00 0.000D+00 0.000D+00 0.000D+00 0.000D+00
 Coeff-En:   0.000D+00 0.000D+00 0.663D+00 0.337D+00
 Coeff:      0.000D+00 0.000D+00 0.000D+00 0.000D+00 0.000D+00 0.000D+00
 Coeff:      0.000D+00 0.000D+00 0.000D+00 0.000D+00 0.000D+00 0.000D+00
 Coeff:      0.000D+00 0.000D+00 0.663D+00 0.337D+00
 Gap=     0.408 Goal=   None    Shift=    0.000
 RMSDP=3.53D+01 MaxDP=3.18D+03 DE= 1.44D+02 OVMax= 9.74D-01

 Cycle  17  Pass 1  IDiag  1:
 RMSU=  2.22D+01    CP:  3.00D+00  3.00D+00  3.00D+00  3.00D+00  1.24D+00
                    CP:  8.99D-01  9.32D-01  1.05D+00  1.15D+00  1.23D+00
                    CP:  3.00D+00  3.00D+00  3.00D+00  1.92D+00  1.71D+00
                    CP:  2.15D+00
 E= -26337.2338184302     Delta-E=     -162.507075934307 Rises=F Damp=F
 DIIS: error= 2.67D-01 at cycle  17 NSaved=  17.
 NSaved=17 IEnMin=17 EnMin= -26337.2338184302     IErMin= 3 ErrMin= 7.16D-02
 ErrMax= 2.67D-01  0.00D+00 EMaxC= 1.00D-01 BMatC= 1.00D+02 BMatP= 4.19D+01
 IDIUse=2 WtCom= 0.00D+00 WtEn= 1.00D+00
 EnCoef did     2 forward-backward iterations
 Coeff-En:   0.000D+00 0.000D+00 0.000D+00 0.000D+00 0.000D+00 0.000D+00
 Coeff-En:   0.000D+00 0.000D+00 0.000D+00 0.000D+00 0.000D+00 0.000D+00
 Coeff-En:   0.000D+00 0.000D+00 0.515D+00 0.248D+00 0.237D+00
 Coeff:      0.000D+00 0.000D+00 0.000D+00 0.000D+00 0.000D+00 0.000D+00
 Coeff:      0.000D+00 0.000D+00 0.000D+00 0.000D+00 0.000D+00 0.000D+00
 Coeff:      0.000D+00 0.000D+00 0.515D+00 0.248D+00 0.237D+00
 Gap=     0.162 Goal=   None    Shift=    0.000
 RMSDP=1.89D+01 MaxDP=5.50D+03 DE=-1.63D+02 OVMax= 9.98D-01

 Cycle  18  Pass 1  IDiag  1:
 RMSU=  1.76D+01    CP:  3.00D+00  3.00D+00  3.00D+00  3.00D+00  1.24D+00
                    CP:  8.98D-01  9.27D-01  1.03D+00  1.14D+00  1.26D+00
                    CP:  3.00D+00  3.00D+00  3.00D+00  1.97D+00  1.84D+00
                    CP:  2.36D+00  1.09D+00
 E= -26302.9537558585     Delta-E=       34.280062571663 Rises=F Damp=F
 DIIS: error= 2.72D-01 at cycle  18 NSaved=  18.
 NSaved=18 IEnMin=17 EnMin= -26337.2338184302     IErMin= 3 ErrMin= 7.16D-02
 ErrMax= 2.72D-01  0.00D+00 EMaxC= 1.00D-01 BMatC= 1.02D+02 BMatP= 4.19D+01
 IDIUse=2 WtCom= 0.00D+00 WtEn= 1.00D+00
 EnCoef did     1 forward-backward iterations
 Coeff-En:   0.000D+00 0.000D+00 0.000D+00 0.000D+00 0.000D+00 0.000D+00
 Coeff-En:   0.000D+00 0.000D+00 0.000D+00 0.000D+00 0.000D+00 0.000D+00
 Coeff-En:   0.000D+00 0.000D+00 0.697D-01 0.000D+00 0.531D+00 0.399D+00
 Coeff:      0.000D+00 0.000D+00 0.000D+00 0.000D+00 0.000D+00 0.000D+00
 Coeff:      0.000D+00 0.000D+00 0.000D+00 0.000D+00 0.000D+00 0.000D+00
 Coeff:      0.000D+00 0.000D+00 0.697D-01 0.000D+00 0.531D+00 0.399D+00
 Gap=    -0.605 Goal=   None    Shift=    0.000
 RMSDP=3.51D+01 MaxDP=2.62D+03 DE= 3.43D+01 OVMax= 9.95D-01

 Cycle  19  Pass 1  IDiag  1:
 RMSU=  2.42D+01    CP:  3.00D+00  3.00D+00  3.00D+00  3.00D+00  1.22D+00
                    CP:  8.82D-01  9.04D-01  9.29D-01  1.12D+00  1.31D+00
                    CP:  3.00D+00  3.00D+00  3.00D+00  2.07D+00  2.09D+00
                    CP:  2.99D+00  1.79D+00  1.67D+00
 E= -26322.4664167662     Delta-E=      -19.512660907632 Rises=F Damp=F
 DIIS: error= 3.88D-01 at cycle  19 NSaved=  19.
 NSaved=19 IEnMin=17 EnMin= -26337.2338184302     IErMin= 3 ErrMin= 7.16D-02
 ErrMax= 3.88D-01  0.00D+00 EMaxC= 1.00D-01 BMatC= 1.18D+02 BMatP= 4.19D+01
 IDIUse=2 WtCom= 0.00D+00 WtEn= 1.00D+00
 EnCoef did     4 forward-backward iterations
 Coeff-En:   0.000D+00 0.000D+00 0.000D+00 0.000D+00 0.000D+00 0.000D+00
 Coeff-En:   0.000D+00 0.000D+00 0.000D+00 0.000D+00 0.000D+00 0.000D+00
 Coeff-En:   0.000D+00 0.000D+00 0.000D+00 0.000D+00 0.448D+00 0.357D+00
 Coeff-En:   0.195D+00
 Coeff:      0.000D+00 0.000D+00 0.000D+00 0.000D+00 0.000D+00 0.000D+00
 Coeff:      0.000D+00 0.000D+00 0.000D+00 0.000D+00 0.000D+00 0.000D+00
 Coeff:      0.000D+00 0.000D+00 0.000D+00 0.000D+00 0.448D+00 0.357D+00
 Coeff:      0.195D+00
 Gap=     0.210 Goal=   None    Shift=    0.000
 RMSDP=1.14D+01 MaxDP=1.32D+03 DE=-1.95D+01 OVMax= 9.61D-01

 Cycle  20  Pass 1  IDiag  1:
 RMSU=  8.22D+00    CP:  3.00D+00  3.00D+00  3.00D+00  3.00D+00  1.21D+00
                    CP:  8.72D-01  8.99D-01  9.24D-01  1.09D+00  1.31D+00
                    CP:  3.00D+00  3.00D+00  3.00D+00  2.10D+00  2.18D+00
                    CP:  3.00D+00  1.93D+00  1.79D+00  1.21D+00
 E= -26348.2776644513     Delta-E=      -25.811247685138 Rises=F Damp=F
 DIIS: error= 3.17D-01 at cycle  20 NSaved=  20.
 NSaved=20 IEnMin=20 EnMin= -26348.2776644513     IErMin= 3 ErrMin= 7.16D-02
 ErrMax= 3.17D-01  0.00D+00 EMaxC= 1.00D-01 BMatC= 1.18D+02 BMatP= 4.19D+01
 IDIUse=2 WtCom= 0.00D+00 WtEn= 1.00D+00
 Rare condition: small coef for last iteration:  0.111D-15
 Coeff-En:   0.000D+00 0.000D+00 0.000D+00 0.000D+00 0.000D+00 0.000D+00
 Coeff-En:   0.000D+00 0.000D+00 0.000D+00 0.000D+00 0.000D+00 0.000D+00
 Coeff-En:   0.000D+00 0.000D+00 0.000D+00 0.000D+00 0.334D+00 0.160D+00
 Coeff-En:   0.190D+00 0.316D+00
 Coeff:      0.000D+00 0.000D+00 0.000D+00 0.000D+00 0.000D+00 0.000D+00
 Coeff:      0.000D+00 0.000D+00 0.000D+00 0.000D+00 0.000D+00 0.000D+00
 Coeff:      0.000D+00 0.000D+00 0.000D+00 0.000D+00 0.334D+00 0.160D+00
 Coeff:      0.190D+00 0.316D+00
 Gap=    -0.022 Goal=   None    Shift=    0.000
 RMSDP=2.17D+01 MaxDP=5.29D+03 DE=-2.58D+01 OVMax= 9.96D-01

 Cycle  21  Pass 1  IDiag  1:
 Restarting incremental Fock formation.
 E= -25954.1146561333     Delta-E=      394.163008318043 Rises=F Damp=F
 DIIS: error= 5.02D-01 at cycle  21 NSaved=  20.
 NSaved=20 IEnMin=19 EnMin= -26348.2776644513     IErMin= 3 ErrMin= 7.16D-02
 ErrMax= 5.02D-01  0.00D+00 EMaxC= 1.00D-01 BMatC= 2.93D+02 BMatP= 4.19D+01
 IDIUse=2 WtCom= 0.00D+00 WtEn= 1.00D+00
 EnCoef did   100 forward-backward iterations
 Coeff-En:   0.000D+00 0.000D+00 0.000D+00 0.000D+00 0.000D+00 0.000D+00
 Coeff-En:   0.000D+00 0.000D+00 0.000D+00 0.000D+00 0.000D+00 0.000D+00
 Coeff-En:   0.000D+00 0.000D+00 0.720D-01 0.136D-02 0.530D+00 0.394D+00
 Coeff-En:   0.228D-02 0.549D-03
 Coeff:      0.000D+00 0.000D+00 0.000D+00 0.000D+00 0.000D+00 0.000D+00
 Coeff:      0.000D+00 0.000D+00 0.000D+00 0.000D+00 0.000D+00 0.000D+00
 Coeff:      0.000D+00 0.000D+00 0.720D-01 0.136D-02 0.530D+00 0.394D+00
 Coeff:      0.228D-02 0.549D-03
 Gap=    -0.039 Goal=   None    Shift=    0.000
 RMSDP=3.12D+01 MaxDP=6.64D+03 DE= 3.94D+02 OVMax= 9.87D-01

 Cycle  22  Pass 1  IDiag  1:
 RMSU=  3.07D+01    CP:  9.82D-01
 E= -26010.4234014230     Delta-E=      -56.308745289745 Rises=F Damp=F
 DIIS: error= 5.95D-01 at cycle  22 NSaved=  20.
 NSaved=20 IEnMin=17 EnMin= -26337.2338184302     IErMin= 3 ErrMin= 7.16D-02
 ErrMax= 5.95D-01  0.00D+00 EMaxC= 1.00D-01 BMatC= 3.53D+02 BMatP= 4.19D+01
 IDIUse=2 WtCom= 0.00D+00 WtEn= 1.00D+00
 EnCoef did   100 forward-backward iterations
 Coeff-En:   0.000D+00 0.000D+00 0.000D+00 0.000D+00 0.000D+00 0.000D+00
 Coeff-En:   0.000D+00 0.000D+00 0.000D+00 0.000D+00 0.000D+00 0.000D+00
 Coeff-En:   0.000D+00 0.000D+00 0.713D-01 0.321D-03 0.531D+00 0.397D+00
 Coeff-En:   0.129D-03 0.538D-03
 Coeff:      0.000D+00 0.000D+00 0.000D+00 0.000D+00 0.000D+00 0.000D+00
 Coeff:      0.000D+00 0.000D+00 0.000D+00 0.000D+00 0.000D+00 0.000D+00
 Coeff:      0.000D+00 0.000D+00 0.713D-01 0.321D-03 0.531D+00 0.397D+00
 Coeff:      0.129D-03 0.538D-03
 Gap=     0.001 Goal=   None    Shift=    0.000
 RMSDP=8.02D-02 MaxDP=1.78D+01 DE=-5.63D+01 OVMax= 3.35D-01

 Cycle  23  Pass 1  IDiag  1:
 RMSU=  5.48D-02    CP:  9.82D-01  1.00D+00
 E= -26014.6147759802     Delta-E=       -4.191374557209 Rises=F Damp=F
 DIIS: error= 5.86D-01 at cycle  23 NSaved=  20.
 NSaved=20 IEnMin=17 EnMin= -26337.2338184302     IErMin= 3 ErrMin= 7.16D-02
 ErrMax= 5.86D-01  0.00D+00 EMaxC= 1.00D-01 BMatC= 3.54D+02 BMatP= 4.19D+01
 IDIUse=2 WtCom= 0.00D+00 WtEn= 1.00D+00
 EnCoef did   100 forward-backward iterations
 Coeff-En:   0.000D+00 0.000D+00 0.000D+00 0.000D+00 0.000D+00 0.000D+00
 Coeff-En:   0.000D+00 0.000D+00 0.000D+00 0.000D+00 0.000D+00 0.000D+00
 Coeff-En:   0.000D+00 0.000D+00 0.705D-01 0.187D-03 0.531D+00 0.398D+00
 Coeff-En:   0.313D-03 0.753D-04
 Coeff:      0.000D+00 0.000D+00 0.000D+00 0.000D+00 0.000D+00 0.000D+00
 Coeff:      0.000D+00 0.000D+00 0.000D+00 0.000D+00 0.000D+00 0.000D+00
 Coeff:      0.000D+00 0.000D+00 0.705D-01 0.187D-03 0.531D+00 0.398D+00
 Coeff:      0.313D-03 0.753D-04
 Gap=     0.001 Goal=   None    Shift=    0.000
 RMSDP=1.09D-01 MaxDP=1.98D+01 DE=-4.19D+00 OVMax= 1.30D-01

 Cycle  24  Pass 1  IDiag  1:
 RMSU=  8.47D-02    CP:  9.82D-01  1.00D+00  1.26D+00
 E= -26022.3728722917     Delta-E=       -7.758096311518 Rises=F Damp=F
 DIIS: error= 5.74D-01 at cycle  24 NSaved=  20.
 NSaved=20 IEnMin=17 EnMin= -26337.2338184302     IErMin= 3 ErrMin= 7.16D-02
 ErrMax= 5.74D-01  0.00D+00 EMaxC= 1.00D-01 BMatC= 3.48D+02 BMatP= 4.19D+01
 IDIUse=2 WtCom= 0.00D+00 WtEn= 1.00D+00
 EnCoef did   100 forward-backward iterations
 Coeff-En:   0.000D+00 0.000D+00 0.000D+00 0.000D+00 0.000D+00 0.000D+00
 Coeff-En:   0.000D+00 0.000D+00 0.000D+00 0.000D+00 0.000D+00 0.000D+00
 Coeff-En:   0.000D+00 0.000D+00 0.702D-01 0.134D-03 0.531D+00 0.398D+00
 Coeff-En:   0.539D-04 0.224D-03
 Coeff:      0.000D+00 0.000D+00 0.000D+00 0.000D+00 0.000D+00 0.000D+00
 Coeff:      0.000D+00 0.000D+00 0.000D+00 0.000D+00 0.000D+00 0.000D+00
 Coeff:      0.000D+00 0.000D+00 0.702D-01 0.134D-03 0.531D+00 0.398D+00
 Coeff:      0.539D-04 0.224D-03
 Gap=     0.001 Goal=   None    Shift=    0.000
 RMSDP=3.99D-02 MaxDP=7.66D+00 DE=-7.76D+00 OVMax= 1.05D-01

 Cycle  25  Pass 1  IDiag  1:
 RMSU=  1.63D-02    CP:  9.82D-01  1.00D+00  1.26D+00  1.33D+00
 E= -26025.2680374291     Delta-E=       -2.895165137372 Rises=F Damp=F
 DIIS: error= 5.82D-01 at cycle  25 NSaved=  20.
 NSaved=20 IEnMin=17 EnMin= -26337.2338184302     IErMin= 3 ErrMin= 7.16D-02
 ErrMax= 5.82D-01  0.00D+00 EMaxC= 1.00D-01 BMatC= 3.43D+02 BMatP= 4.19D+01
 IDIUse=2 WtCom= 0.00D+00 WtEn= 1.00D+00
 EnCoef did   100 forward-backward iterations
 Coeff-En:   0.000D+00 0.000D+00 0.000D+00 0.000D+00 0.000D+00 0.000D+00
 Coeff-En:   0.000D+00 0.000D+00 0.000D+00 0.000D+00 0.000D+00 0.000D+00
 Coeff-En:   0.000D+00 0.000D+00 0.701D-01 0.104D-03 0.531D+00 0.398D+00
 Coeff-En:   0.175D-03 0.421D-04
 Coeff:      0.000D+00 0.000D+00 0.000D+00 0.000D+00 0.000D+00 0.000D+00
 Coeff:      0.000D+00 0.000D+00 0.000D+00 0.000D+00 0.000D+00 0.000D+00
 Coeff:      0.000D+00 0.000D+00 0.701D-01 0.104D-03 0.531D+00 0.398D+00
 Coeff:      0.175D-03 0.421D-04
 Gap=     0.001 Goal=   None    Shift=    0.000
 RMSDP=3.28D-02 MaxDP=3.81D+00 DE=-2.90D+00 OVMax= 1.14D-01

 Cycle  26  Pass 1  IDiag  1:
 RMSU=  6.63D-03    CP:  9.82D-01  1.00D+00  1.13D+00  1.47D+00  2.67D+00
 E= -26027.9740550757     Delta-E=       -2.706017646611 Rises=F Damp=F
 DIIS: error= 5.88D-01 at cycle  26 NSaved=  20.
 NSaved=20 IEnMin=17 EnMin= -26337.2338184302     IErMin= 3 ErrMin= 7.16D-02
 ErrMax= 5.88D-01  0.00D+00 EMaxC= 1.00D-01 BMatC= 3.40D+02 BMatP= 4.19D+01
 IDIUse=2 WtCom= 0.00D+00 WtEn= 1.00D+00
 EnCoef did   100 forward-backward iterations
 Coeff-En:   0.000D+00 0.000D+00 0.000D+00 0.000D+00 0.000D+00 0.000D+00
 Coeff-En:   0.000D+00 0.000D+00 0.000D+00 0.000D+00 0.000D+00 0.000D+00
 Coeff-En:   0.000D+00 0.000D+00 0.700D-01 0.859D-04 0.531D+00 0.398D+00
 Coeff-En:   0.346D-04 0.144D-03
 Coeff:      0.000D+00 0.000D+00 0.000D+00 0.000D+00 0.000D+00 0.000D+00
 Coeff:      0.000D+00 0.000D+00 0.000D+00 0.000D+00 0.000D+00 0.000D+00
 Coeff:      0.000D+00 0.000D+00 0.700D-01 0.859D-04 0.531D+00 0.398D+00
 Coeff:      0.346D-04 0.144D-03
 Gap=     0.001 Goal=   None    Shift=    0.000
 RMSDP=4.21D-02 MaxDP=4.08D+00 DE=-2.71D+00 OVMax= 1.42D-01

 Cycle  27  Pass 1  IDiag  1:
 RMSU=  3.23D-02    CP:  9.82D-01  1.00D+00  9.16D-01  1.51D+00  3.00D+00
                    CP:  2.91D+00
 E= -26031.0397940518     Delta-E=       -3.065738976067 Rises=F Damp=F
 DIIS: error= 5.93D-01 at cycle  27 NSaved=  20.
 NSaved=20 IEnMin=17 EnMin= -26337.2338184302     IErMin= 3 ErrMin= 7.16D-02
 ErrMax= 5.93D-01  0.00D+00 EMaxC= 1.00D-01 BMatC= 3.39D+02 BMatP= 4.19D+01
 IDIUse=2 WtCom= 0.00D+00 WtEn= 1.00D+00
 EnCoef did   100 forward-backward iterations
 Coeff-En:   0.000D+00 0.000D+00 0.000D+00 0.000D+00 0.000D+00 0.000D+00
 Coeff-En:   0.000D+00 0.000D+00 0.000D+00 0.000D+00 0.000D+00 0.000D+00
 Coeff-En:   0.000D+00 0.000D+00 0.700D-01 0.730D-04 0.531D+00 0.398D+00
 Coeff-En:   0.122D-03 0.294D-04
 Coeff:      0.000D+00 0.000D+00 0.000D+00 0.000D+00 0.000D+00 0.000D+00
 Coeff:      0.000D+00 0.000D+00 0.000D+00 0.000D+00 0.000D+00 0.000D+00
 Coeff:      0.000D+00 0.000D+00 0.700D-01 0.730D-04 0.531D+00 0.398D+00
 Coeff:      0.122D-03 0.294D-04
 Gap=     0.001 Goal=   None    Shift=    0.000
 RMSDP=3.95D-02 MaxDP=4.22D+00 DE=-3.07D+00 OVMax= 1.18D-01

 Cycle  28  Pass 1  IDiag  1:
 RMSU=  1.39D-02    CP:  9.82D-01  1.00D+00  6.98D-01  1.51D+00  3.00D+00
                    CP:  3.00D+00  2.07D+00
 E= -26033.3963771544     Delta-E=       -2.356583102584 Rises=F Damp=F
 DIIS: error= 5.97D-01 at cycle  28 NSaved=  20.
 NSaved=20 IEnMin=17 EnMin= -26337.2338184302     IErMin= 3 ErrMin= 7.16D-02
 ErrMax= 5.97D-01  0.00D+00 EMaxC= 1.00D-01 BMatC= 3.38D+02 BMatP= 4.19D+01
 IDIUse=2 WtCom= 0.00D+00 WtEn= 1.00D+00
 EnCoef did   100 forward-backward iterations
 Coeff-En:   0.000D+00 0.000D+00 0.000D+00 0.000D+00 0.000D+00 0.000D+00
 Coeff-En:   0.000D+00 0.000D+00 0.000D+00 0.000D+00 0.000D+00 0.000D+00
 Coeff-En:   0.000D+00 0.000D+00 0.699D-01 0.636D-04 0.531D+00 0.398D+00
 Coeff-En:   0.256D-04 0.106D-03
 Coeff:      0.000D+00 0.000D+00 0.000D+00 0.000D+00 0.000D+00 0.000D+00
 Coeff:      0.000D+00 0.000D+00 0.000D+00 0.000D+00 0.000D+00 0.000D+00
 Coeff:      0.000D+00 0.000D+00 0.699D-01 0.636D-04 0.531D+00 0.398D+00
 Coeff:      0.256D-04 0.106D-03
 Gap=     0.001 Goal=   None    Shift=    0.000
 RMSDP=3.59D-02 MaxDP=3.97D+00 DE=-2.36D+00 OVMax= 1.02D-01

 Cycle  29  Pass 1  IDiag  1:
[...]
 Alpha virt. eigenvalues --    2.13682   2.13808   2.14085   2.14615   2.14853
 Alpha virt. eigenvalues --    2.15261   2.15361   2.15865   2.16325   2.16699
 Alpha virt. eigenvalues --    2.16861   2.16946   2.17206   2.17487   2.17675
 Alpha virt. eigenvalues --    2.18290   2.18506   2.18865   2.19147   2.19337
 Alpha virt. eigenvalues --    2.19553   2.20075   2.20342   2.20623   2.20841
 Alpha virt. eigenvalues --    2.21271   2.21789   2.22019   2.22504   2.22700
 Alpha virt. eigenvalues --    2.22994   2.23497   2.23868   2.23931   2.24063
 Alpha virt. eigenvalues --    2.24231   2.24812   2.24959   2.25480   2.25654
 Alpha virt. eigenvalues --    2.26383   2.26579   2.26832   2.27122   2.27559
 Alpha virt. eigenvalues --    2.27814   2.28333   2.28537   2.28704   2.29016
 Alpha virt. eigenvalues --    2.29470   2.29566   2.29788   2.30218   2.30391
 Alpha virt. eigenvalues --    2.30590   2.31340   2.31716   2.32088   2.32140
 Alpha virt. eigenvalues --    2.32330   2.32564   2.32954   2.33342   2.33870
 Alpha virt. eigenvalues --    2.34070   2.34771   2.34804   2.35140   2.35503
 Alpha virt. eigenvalues --    2.35782   2.36114   2.36482   2.36688   2.36904
 Alpha virt. eigenvalues --    2.37157   2.37582   2.37754   2.38291   2.38563
 Alpha virt. eigenvalues --    2.39012   2.39622   2.40309   2.40652   2.41173
 Alpha virt. eigenvalues --    2.41530   2.41617   2.41922   2.42279   2.42611
 Alpha virt. eigenvalues --    2.42815   2.43245   2.43563   2.44208   2.44451
 Alpha virt. eigenvalues --    2.44750   2.45074   2.45410   2.45504   2.45822
 Alpha virt. eigenvalues --    2.46351   2.46886   2.47031   2.47628   2.48148
 Alpha virt. eigenvalues --    2.48588   2.48981   2.49295   2.49753   2.50134
 Alpha virt. eigenvalues --    2.50389   2.50818   2.51119   2.51721   2.51984
 Alpha virt. eigenvalues --    2.52048   2.52516   2.53724   2.54208   2.54265
 Alpha virt. eigenvalues --    2.54934   2.55159   2.55914   2.56327   2.56442
 Alpha virt. eigenvalues --    2.56838   2.57333   2.57883   2.58133   2.58818
 Alpha virt. eigenvalues --    2.59498   2.59666   2.60015   2.60586   2.60814
 Alpha virt. eigenvalues --    2.61243   2.61669   2.61787   2.62321   2.62592
 Alpha virt. eigenvalues --    2.63414   2.64078   2.64442   2.64927   2.65357
 Alpha virt. eigenvalues --    2.66472   2.66689   2.67685   2.67847   2.68206
 Alpha virt. eigenvalues --    2.68455   2.69462   2.70570   2.70855   2.71527
 Alpha virt. eigenvalues --    2.72057   2.72357   2.72975   2.73331   2.74130
 Alpha virt. eigenvalues --    2.74570   2.75099   2.75337   2.75611   2.75994
 Alpha virt. eigenvalues --    2.77359   2.77994   2.78236   2.78765   2.79496
 Alpha virt. eigenvalues --    2.79668   2.80030   2.80205   2.80782   2.81204
 Alpha virt. eigenvalues --    2.81977   2.82338   2.82674   2.83850   2.84420
 Alpha virt. eigenvalues --    2.85724   2.86353   2.86824   2.87346   2.87539
 Alpha virt. eigenvalues --    2.88150   2.89729   2.90219   2.90300   2.91177
 Alpha virt. eigenvalues --    2.92986   2.93431   2.94980   2.95756   2.95966
 Alpha virt. eigenvalues --    2.97688   2.98180   3.00374   3.01716   3.02127
 Alpha virt. eigenvalues --    3.03581   3.04325   3.05578   3.06794   3.08071
 Alpha virt. eigenvalues --    3.08794   3.11994   3.12220   3.13314   3.14170
 Alpha virt. eigenvalues --    3.14966   3.19154   3.21259   3.24621   3.27186
 Alpha virt. eigenvalues --    3.28765   3.30971   3.32453   3.34254   3.36451
 Alpha virt. eigenvalues --    3.37012   3.37261   3.40282   3.41771   3.45053
 Alpha virt. eigenvalues --    3.46786   3.47297   3.47984   3.48656   3.50167
 Alpha virt. eigenvalues --    3.50495   3.51906   3.52403   3.53421   3.53895
 Alpha virt. eigenvalues --    3.54764   3.55510   3.56569   3.56821   3.58556
 Alpha virt. eigenvalues --    3.58983   3.59420   3.60294   3.61775   3.62874
 Alpha virt. eigenvalues --    3.63785   3.65794   3.66815   3.68152   3.68842
 Alpha virt. eigenvalues --    3.69391   3.69865   3.71825   3.72210   3.73273
 Alpha virt. eigenvalues --    3.74466   3.74813   3.76969   3.78091   3.78658
 Alpha virt. eigenvalues --    3.80065   3.80313   3.80523   3.82037   3.82805
 Alpha virt. eigenvalues --    3.83810   3.84469   3.85252   3.86124   3.87418
 Alpha virt. eigenvalues --    3.88890   3.89567   3.90393   3.91759   3.92709
 Alpha virt. eigenvalues --    3.93586   3.97956   3.98908   4.01346   4.02864
 Alpha virt. eigenvalues --    4.04831   4.06098   4.06490   4.08074   4.08928
 Alpha virt. eigenvalues --    4.09841   4.11267   4.12986   4.14563   4.16017
 Alpha virt. eigenvalues --    4.17244   4.18870   4.19586   4.23621   4.25778
 Alpha virt. eigenvalues --    4.29065   4.31624   4.33290   4.37661   4.40714
 Alpha virt. eigenvalues --    4.46704   4.49052   4.50315   4.51523   4.58439
 Alpha virt. eigenvalues --    4.59519   4.66872   4.73216   4.75895   4.91419
 Alpha virt. eigenvalues --    4.92301   4.98805   5.15709   5.24907   5.39098
 Alpha virt. eigenvalues --    5.43929   5.51889   5.71028   5.74150   5.80890
 Alpha virt. eigenvalues --    5.95497   6.08498   6.09736   6.11796   6.14532
 Alpha virt. eigenvalues --    6.16689   6.17394   6.19630   6.21271   6.22811
 Alpha virt. eigenvalues --    6.24409   6.26753   6.29198   6.30741   6.31626
 Alpha virt. eigenvalues --    6.32343   6.34158   6.34670   6.36036   6.37731
 Alpha virt. eigenvalues --    6.39490   6.39827   6.40136   6.41711   6.42796
 Alpha virt. eigenvalues --    6.43205   6.43662   6.45038   6.45129   6.46331
 Alpha virt. eigenvalues --    6.47878   6.48917   6.49428   6.50133   6.51664
 Alpha virt. eigenvalues --    6.52830   6.54696   6.56958   6.57431   6.57961
 Alpha virt. eigenvalues --    6.58563   6.60840   6.61072   6.61905   6.62600
 Alpha virt. eigenvalues --    6.64960   6.65654   6.66878   6.67604   6.68391
 Alpha virt. eigenvalues --    6.70081   6.73461   6.73623   6.75218   6.76551
 Alpha virt. eigenvalues --    6.78601   6.82454   6.84687   6.87681   6.93760
 Alpha virt. eigenvalues --    6.99886   7.12877   7.18076   7.24044   7.31856
 Alpha virt. eigenvalues --    7.35061   7.36723   7.47677   7.60823   7.66893
 Alpha virt. eigenvalues --    7.82319   8.04285   8.39785   8.59057   8.92007
 Alpha virt. eigenvalues --    9.23660   9.24427   9.24902   9.25628   9.26675
 Alpha virt. eigenvalues --    9.27626   9.30293   9.32680   9.41895   9.51964
 Alpha virt. eigenvalues --    9.67917   9.87045  10.55664  10.79848  10.82625
 Alpha virt. eigenvalues --   10.88564  10.95339  11.09605  11.38134  11.65335
 Alpha virt. eigenvalues --   12.37448  12.50452  13.02514  13.64914  13.78534
 Alpha virt. eigenvalues --   13.89597  14.78641  15.47753  15.62462  15.81197
 Alpha virt. eigenvalues --   15.97357  16.05811  16.11872  16.19779  16.20389
 Alpha virt. eigenvalues --   16.21456  16.24701  16.26512  16.26681  16.27803
 Alpha virt. eigenvalues --   16.30365  16.32424  16.34102  16.34347  16.36529
 Alpha virt. eigenvalues --   16.38785  16.41258  16.44114  16.45061  16.45704
 Alpha virt. eigenvalues --   16.45912  16.48258  16.49518  16.50189  16.52628
 Alpha virt. eigenvalues --   16.53019  16.53924  16.54968  16.56353  16.58695
 Alpha virt. eigenvalues --   16.58957  16.60111  16.60654  16.63285  16.65436
 Alpha virt. eigenvalues --   16.66457  16.68486  16.69685  16.70726  16.71272
 Alpha virt. eigenvalues --   16.71901  16.74848  16.76788  16.77891  16.78453
 Alpha virt. eigenvalues --   16.81517  16.82744  16.84801  16.89212  16.89739
 Alpha virt. eigenvalues --   16.94328  16.94799  16.96730  17.04709  17.07764
 Alpha virt. eigenvalues --   17.09687  17.11325  17.15526  17.20693  17.46454
 Alpha virt. eigenvalues --   17.63476  18.18315  20.81149  21.89571  22.18012
 Alpha virt. eigenvalues --   22.42383  22.69117  25.19056  25.31308  25.35756
 Alpha virt. eigenvalues --   26.54082  27.24570  31.31042  31.34638  31.37025
 Alpha virt. eigenvalues --   31.38618  31.44955  33.16947  36.52104  40.42945
 Alpha virt. eigenvalues --   44.21127  44.24831  44.26644  44.30266  44.41486
 Alpha virt. eigenvalues --   61.37952  61.52176  62.84925  83.54377  87.48708
 Alpha virt. eigenvalues --   87.67043  87.74648  88.15160  88.24218  88.29340
 Alpha virt. eigenvalues --   88.38616  88.40341  88.43365  88.45994  88.48205
 Alpha virt. eigenvalues --   88.48876  88.49413  88.56057  88.56541  88.57242
 Alpha virt. eigenvalues --   88.59021  88.61133  88.61684  88.62359  88.65425
 Alpha virt. eigenvalues --   88.67857  88.69217  88.70718  88.70864  88.71932
 Alpha virt. eigenvalues --   88.72422  88.73525  88.75194  88.77462  88.78671
 Alpha virt. eigenvalues --   88.80713  88.81163  88.83417  88.84988  88.85553
 Alpha virt. eigenvalues --   88.87231  88.87733  88.88979  88.89945  88.92600
 Alpha virt. eigenvalues --   88.92723  88.93094  88.96020  88.98129  88.99890
 Alpha virt. eigenvalues --   89.01322  89.02106  89.03551  89.04051  89.05235
 Alpha virt. eigenvalues --   89.06145  89.09058  89.14431  89.17806  89.23581
 Alpha virt. eigenvalues --   89.24309  89.25846  89.26392  89.33447  89.34547
 Alpha virt. eigenvalues --   89.42469  89.45801  89.48159 121.51104 121.57629
 Alpha virt. eigenvalues --  121.61503 238.98172 258.79104 331.69583 331.83091
 Alpha virt. eigenvalues --  430.25587 430.39687 430.45890 589.84704 589.89730
 Alpha virt. eigenvalues --  589.92553 774.54783 839.348402070.189772529.69907
 Alpha virt. eigenvalues -- 5497.01245******************************
          Condensed to atoms (all electrons):
 Mulliken charges:
               1
     1  Pt  11.809149
     2  C   -0.173210
     3  C   -1.702392
     4  C   -1.632267
     5  C   -0.246592
     6  H    0.425880
     7  C    0.285638
     8  H    0.529247
     9  C    0.865997
    10  H    0.533068
    11  H    0.661683
    12  H    1.054586
    13  P    0.703503
    14  P   -1.335000
    15  C   -2.872909
    16  C   -0.709532
    17  C   -1.710879
    18  C   -0.797725
    19  H    0.443659
    20  C   -2.850277
    21  H    0.628146
    22  C   -1.778272
    23  H    0.419870
    24  H    0.545227
    25  H    0.505340
    26  C   -0.073986
    27  C   -2.997753
    28  C   -2.707497
    29  C   -0.765517
    30  H    0.491606
    31  C   -1.664008
    32  H    0.456982
    33  C   -1.238571
    34  H    0.481353
    35  H    0.485722
    36  H    0.456224
    37  C   -0.472439
    38  C   -1.876822
    39  C   -0.897691
    40  C   -2.036797
    41  H    0.478909
    42  C   -1.798615
    43  H    0.406752
    44  C   -2.695905
    45  H    0.611902
    46  H    0.517056
    47  H    0.549642
    48  C    0.948381
    49  C   -2.144470
    50  C    0.969514
    51  C    2.329159
    52  H    0.327699
    53  C    1.548023
    54  H    1.023806
    55  C    2.262935
    56  H    0.781069
    57  H    1.005614
    58  H    0.978138
    59  C   -1.844980
    60  C   -2.737703
    61  C   -1.087479
    62  C   -1.879749
    63  H    0.555357
    64  C   -1.489148
    65  H    0.529617
    66  C   -1.384887
    67  H    0.507014
    68  H    0.526162
    69  H    0.509766
    70  C    0.830800
    71  C    0.969789
    72  C    1.107360
    73  C   -0.069864
    74  H    0.877933
    75  C   -0.768816
    76  H    0.814518
    77  C   -0.683054
    78  H    0.506568
    79  H    0.475637
    80  H    0.489784
    81  Sn  -4.250760
    82  C   -0.547313
    83  C   -2.614751
    84  C   -2.688587
    85  C   -1.323585
    86  H    0.714020
    87  C   -0.485536
    88  H    0.546775
    89  C    0.152055
    90  H    0.496913
    91  H    0.525132
    92  H    1.048850
    93  C    0.479131
    94  C    0.955721
    95  C   -0.310946
    96  C   -0.529700
    97  H    0.392923
    98  C   -0.332089
    99  H    0.997292
   100  C   -0.438850
   101  H    0.502665
   102  H    0.498538
   103  H    0.414348
   104  S   16.000000
   105  C  -12.753838
   106  H    1.516282
   107  H    1.665030
   108  C    1.171251
   109  C    0.146067
   110  C    0.702002
   111  C   -1.421383
   112  H    0.496499
   113  C   -0.370022
   114  H    0.869923
   115  C    0.031583
   116  H    0.527719
   117  H    0.642603
   118  H    0.477058
 Sum of Mulliken charges =   0.00000
 Mulliken charges with hydrogens summed into heavy atoms:
               1
     1  Pt  11.809149
     2  C   -0.173210
     3  C   -1.276512
     4  C   -1.103020
     5  C    0.286476
     7  C    0.947321
     9  C    1.920583
    13  P    0.703503
    14  P   -1.335000
    15  C   -2.872909
    16  C   -0.265872
    17  C   -1.082733
    18  C   -0.377855
    20  C   -2.305050
    22  C   -1.272932
    26  C   -0.073986
    27  C   -2.506146
    28  C   -2.250515
    29  C   -0.284165
    31  C   -1.178286
    33  C   -0.782347
    37  C   -0.472439
    38  C   -1.397912
    39  C   -0.490938
    40  C   -1.424895
    42  C   -1.281559
    44  C   -2.146262
    48  C    0.948381
    49  C   -1.816771
    50  C    1.993320
    51  C    3.110228
    53  C    2.553637
    55  C    3.241072
    59  C   -1.844980
    60  C   -2.182346
    61  C   -0.557862
    62  C   -1.372735
    64  C   -0.962985
    66  C   -0.875121
    70  C    0.830800
    71  C    1.847722
    72  C    1.921878
    73  C    0.436705
    75  C   -0.293179
    77  C   -0.193270
    81  Sn  -4.250760
    82  C   -0.547313
    83  C   -1.900731
    84  C   -2.141812
    85  C   -0.826672
    87  C    0.039597
    89  C    1.200905
    93  C    0.479131
    94  C    1.348644
    95  C    0.686346
    96  C   -0.027035
    98  C    0.166448
   100  C   -0.024502
   104  S   16.000000
   105  C   -9.572526
   108  C    1.171251
   109  C    0.642566
   110  C    1.571925
   111  C   -0.893663
   113  C    0.272581
   115  C    0.508641
 Electronic spatial extent (au):  <R**2>=          54404.8416
 Charge=              0.0000 electrons
 Dipole moment (field-independent basis, Debye):
    X=           -623.5470    Y=            -56.8342    Z=           -258.0305  Tot=            677.2154
 Quadrupole moment (field-independent basis, Debye-Ang):
   XX=          -3786.4351   YY=          -2235.4699   ZZ=          -2644.8309
   XY=            141.3352   XZ=           -578.6306   YZ=            894.7003
 Traceless Quadrupole moment (field-independent basis, Debye-Ang):
   XX=           -897.5231   YY=            653.4421   ZZ=            244.0811
   XY=            141.3352   XZ=           -578.6306   YZ=            894.7003
 Octapole moment (field-independent basis, Debye-Ang**2):
  XXX=         -11682.9614  YYY=            783.8112  ZZZ=          -3383.7566  XYY=          -4419.5299
  XXY=            331.4813  XXZ=          -1083.8584  XZZ=          -3401.0738  YZZ=           -893.0587
  YYZ=          -2533.8145  XYZ=           -469.6402
 Hexadecapole moment (field-independent basis, Debye-Ang**3):
 XXXX=        -227500.6970 YYYY=        -109961.0339 ZZZZ=         -92319.1635 XXXY=          -8238.4776
 XXXZ=          -4714.1972 YYYX=           5511.5660 YYYZ=          10290.1237 ZZZX=         -11980.1280
 ZZZY=           3470.7903 XXYY=         -59836.5394 XXZZ=         -44563.7414 YYZZ=         -33999.8089
 XXYZ=           8239.8707 YYXZ=           1368.6855 ZZXY=           -180.4416
 N-N= 1.743256941461D+04 E-N=-9.518931914625D+04  KE= 2.572028265229D+04
 Leave Link  601 at Sat Apr 11 19:43:19 2020, MaxMem=  4026531840 cpu:        93.1
 (Enter /scr/programs/g09/l9999.exe)
 1\1\GINC-NEQC27\SP\RPBEPBE\Gen\C61H52P2Pt1S1Sn1\GUEST\11-Apr-2020\0\\#
 PBEPBE/gen scf=(maxcycle=500,conver=2) NMR=GIAO Scrf=(solvent=Dichloro
 methane)\\estrutura 91\\0,1\Pt,0,0.715628,0.354789,-0.164155\C,0,0.747
 512,2.433612,-0.054315\C,0,0.606324,3.168188,1.139097\C,0,0.952662,3.1
 80728,-1.233726\C,0,0.68132,4.566895,1.160112\H,0,0.418622,2.650296,2.
 081918\C,0,1.018141,4.579699,-1.224218\H,0,1.075417,2.662546,-2.189338
 \C,0,0.885806,5.283573,-0.02271\H,0,0.565363,5.098231,2.109766\H,0,1.1
 77887,5.119846,-2.162586\H,0,0.936788,6.375939,-0.009757\P,0,3.096599,
 0.48021,0.541703\P,0,0.531277,-2.061025,-0.422267\C,0,3.201793,0.71927
 ,2.372198\C,0,4.446112,0.874572,3.013759\C,0,2.038432,0.662004,3.15538
 4\C,0,4.516442,0.999809,4.40248\H,0,5.369167,0.885124,2.42962\C,0,2.11
 1145,0.779663,4.548384\H,0,1.0721,0.506815,2.671102\C,0,3.347937,0.954
 796,5.173298\H,0,5.48879,1.12401,4.885801\H,0,1.196049,0.727579,5.1438
 28\H,0,3.405422,1.045917,6.26086\C,0,3.948057,1.928551,-0.232437\C,0,4
 .03057,1.967907,-1.637192\C,0,4.478641,3.00097,0.500188\C,0,4.668355,3
 .025646,-2.288314\H,0,3.581627,1.17305,-2.237408\C,0,5.101584,4.069741
 ,-0.154437\H,0,4.400945,3.02012,1.587243\C,0,5.208761,4.081383,-1.5469
 24\H,0,4.728751,3.031333,-3.379318\H,0,5.503982,4.898023,0.433985\H,0,
 5.700224,4.915092,-2.054394\C,0,4.352934,-0.883177,0.336791\C,0,4.2783
 41,-1.986394,1.206614\C,0,5.36605,-0.866353,-0.635682\C,0,5.187626,-3.
 04171,1.10484\H,0,3.512897,-2.02045,1.98279\C,0,6.277383,-1.923074,-0.
 735509\H,0,5.465471,-0.023795,-1.318094\C,0,6.191273,-3.01552,0.131235
 \H,0,5.111137,-3.885691,1.794\H,0,7.062024,-1.884045,-1.495954\H,0,6.9
 05437,-3.838926,0.052994\C,0,-1.040595,-2.805415,-1.081024\C,0,-1.7595
 32,-3.801222,-0.403077\C,0,-1.471513,-2.403833,-2.357529\C,0,-2.888118
 ,-4.383825,-0.990725\H,0,-1.445654,-4.130542,0.588386\C,0,-2.595985,-2
 .988576,-2.943318\H,0,-0.92641,-1.630535,-2.904524\C,0,-3.308502,-3.98
 134,-2.260872\H,0,-3.439663,-5.155952,-0.447822\H,0,-2.919654,-2.66172
 2,-3.934398\H,0,-4.190282,-4.437917,-2.718435\C,0,0.744815,-2.940437,1
 .191043\C,0,1.605822,-4.028553,1.40084\C,0,-0.023097,-2.464889,2.27177
 3\C,0,1.697205,-4.627687,2.662955\H,0,2.224166,-4.409285,0.587983\C,0,
 0.064626,-3.069739,3.528294\H,0,-0.70624,-1.623941,2.127318\C,0,0.9278
 3,-4.152376,3.728265\H,0,2.37581,-5.471388,2.810374\H,0,-0.543142,-2.6
 91425,4.353843\H,0,1.000609,-4.6229,4.712237\C,0,1.689676,-2.81746,-1.
 655901\C,0,1.666138,-4.196693,-1.941626\C,0,2.502968,-1.982799,-2.4356
 31\C,0,2.463001,-4.724773,-2.958516\H,0,1.002946,-4.863393,-1.386969\C
 ,0,3.291286,-2.509694,-3.464661\H,0,2.501899,-0.907973,-2.246528\C,0,3
 .278136,-3.881886,-3.723534\H,0,2.435217,-5.79762,-3.165802\H,0,3.9135
 74,-1.841916,-4.065268\H,0,3.892104,-4.295505,-4.527111\Sn,0,-1.868845
 ,0.903584,-0.518755\C,0,-2.599023,0.995064,-2.59914\C,0,-3.850975,0.46
 6555,-2.957381\C,0,-1.833384,1.61557,-3.603521\C,0,-4.329792,0.564795,
 -4.270414\H,0,-4.459953,-0.045198,-2.206194\C,0,-2.305128,1.71406,-4.9
 20237\H,0,-0.851847,2.034735,-3.365612\C,0,-3.557343,1.190325,-5.25624
 \H,0,-5.308736,0.149125,-4.525383\H,0,-1.692121,2.201881,-5.684286\H,0
 ,-3.929057,1.267603,-6.282229\C,0,-2.689028,2.762802,0.32309\C,0,-3.12
 2851,3.797916,-0.520787\C,0,-2.809077,2.950097,1.711494\C,0,-3.655836,
 4.98409,0.001794\H,0,-3.051194,3.686226,-1.606503\C,0,-3.343986,4.1302
 28,2.240274\H,0,-2.484626,2.164098,2.40067\C,0,-3.768474,5.152874,1.38
 4476\H,0,-3.986354,5.776322,-0.675725\H,0,-3.429257,4.253366,3.323646\
 H,0,-4.186023,6.076277,1.794716\S,0,-3.393518,-0.747016,0.638711\C,0,-
 4.987768,0.183914,0.898518\H,0,-4.778049,1.111998,1.446143\H,0,-5.4039
 42,0.453617,-0.0827\C,0,-5.956086,-0.68125,1.662288\C,0,-6.786339,-1.5
 96639,0.993101\C,0,-6.034761,-0.608275,3.063671\C,0,-7.675335,-2.40878
 7,1.702367\H,0,-6.734254,-1.670549,-0.097041\C,0,-6.922994,-1.41919,3.
 776332\H,0,-5.393864,0.096995,3.600128\C,0,-7.747132,-2.322792,3.09768
 \H,0,-8.31722,-3.110638,1.163566\H,0,-6.973862,-1.343022,4.866108\H,0,
 -8.443904,-2.95574,3.653071\\Version=EM64L-G09RevD.01\State=1-A\HF=-26
 040.3234693\RMSD=4.926e-03\Dipole=-245.3223054,-22.3603059,-101.517003
 \Quadrupole=-667.2864997,485.8182044,181.4682953,105.0792386,-430.1977
 262,665.187748\PG=C01 [X(C61H52P2Pt1S1Sn1)]\\@


 E PUR SI MUOVE    -- GALILEO GALILEI
 Job cpu time:       8 days  2 hours 35 minutes 23.9 seconds.
 File lengths (MBytes):  RWF=   4098 Int=      0 D2E=      0 Chk=    287 Scr=      1
 Normal termination of Gaussian 09 at Sat Apr 11 19:43:21 2020.
