 Entering Gaussian System, Link 0=g09
 Input=estrutura96.com
 Output=estrutura96.log
 Initial command:
 /scr/programs/g09/l1.exe "/scr/guest/Gau-22460.inp" -scrdir="/scr/guest/"
 Entering Link 1 = /scr/programs/g09/l1.exe PID=     22461.
  
 Copyright (c) 1988,1990,1992,1993,1995,1998,2003,2009,2013,
            Gaussian, Inc.  All Rights Reserved.
  
 This is part of the Gaussian(R) 09 program.  It is based on
 the Gaussian(R) 03 system (copyright 2003, Gaussian, Inc.),
 the Gaussian(R) 98 system (copyright 1998, Gaussian, Inc.),
 the Gaussian(R) 94 system (copyright 1995, Gaussian, Inc.),
 the Gaussian 92(TM) system (copyright 1992, Gaussian, Inc.),
 the Gaussian 90(TM) system (copyright 1990, Gaussian, Inc.),
 the Gaussian 88(TM) system (copyright 1988, Gaussian, Inc.),
 the Gaussian 86(TM) system (copyright 1986, Carnegie Mellon
 University), and the Gaussian 82(TM) system (copyright 1983,
 Carnegie Mellon University). Gaussian is a federally registered
 trademark of Gaussian, Inc.
  
 This software contains proprietary and confidential information,
 including trade secrets, belonging to Gaussian, Inc.
  
 This software is provided under written license and may be
 used, copied, transmitted, or stored only in accord with that
 written license.
  
 The following legend is applicable only to US Government
 contracts under FAR:
  
                    RESTRICTED RIGHTS LEGEND
  
 Use, reproduction and disclosure by the US Government is
 subject to restrictions as set forth in subparagraphs (a)
 and (c) of the Commercial Computer Software - Restricted
 Rights clause in FAR 52.227-19.
  
 Gaussian, Inc.
 340 Quinnipiac St., Bldg. 40, Wallingford CT 06492
  
  
 ---------------------------------------------------------------
 Warning -- This program may not be used in any manner that
 competes with the business of Gaussian, Inc. or will provide
 assistance to any competitor of Gaussian, Inc.  The licensee
 of this program is prohibited from giving any competitor of
 Gaussian, Inc. access to this program.  By using this program,
 the user acknowledges that Gaussian, Inc. is engaged in the
 business of creating and licensing software in the field of
 computational chemistry and represents and warrants to the
 licensee that it is not a competitor of Gaussian, Inc. and that
 it will not use this program in any manner prohibited above.
 ---------------------------------------------------------------
  

 Cite this work as:
 Gaussian 09, Revision D.01,
 M. J. Frisch, G. W. Trucks, H. B. Schlegel, G. E. Scuseria, 
 M. A. Robb, J. R. Cheeseman, G. Scalmani, V. Barone, B. Mennucci, 
 G. A. Petersson, H. Nakatsuji, M. Caricato, X. Li, H. P. Hratchian, 
 A. F. Izmaylov, J. Bloino, G. Zheng, J. L. Sonnenberg, M. Hada, 
 M. Ehara, K. Toyota, R. Fukuda, J. Hasegawa, M. Ishida, T. Nakajima, 
 Y. Honda, O. Kitao, H. Nakai, T. Vreven, J. A. Montgomery, Jr., 
 J. E. Peralta, F. Ogliaro, M. Bearpark, J. J. Heyd, E. Brothers, 
 K. N. Kudin, V. N. Staroverov, T. Keith, R. Kobayashi, J. Normand, 
 K. Raghavachari, A. Rendell, J. C. Burant, S. S. Iyengar, J. Tomasi, 
 M. Cossi, N. Rega, J. M. Millam, M. Klene, J. E. Knox, J. B. Cross, 
 V. Bakken, C. Adamo, J. Jaramillo, R. Gomperts, R. E. Stratmann, 
 O. Yazyev, A. J. Austin, R. Cammi, C. Pomelli, J. W. Ochterski, 
 R. L. Martin, K. Morokuma, V. G. Zakrzewski, G. A. Voth, 
 P. Salvador, J. J. Dannenberg, S. Dapprich, A. D. Daniels, 
 O. Farkas, J. B. Foresman, J. V. Ortiz, J. Cioslowski, 
 and D. J. Fox, Gaussian, Inc., Wallingford CT, 2013.
 
 ******************************************
 Gaussian 09:  EM64L-G09RevD.01 24-Apr-2013
                12-Dec-2019 
 ******************************************
 %mem=30Gb
 %nproc=24
 Will use up to   24 processors via shared memory.
 ----------------------------------------------------------------------
 #PBEPBE/gen scf=(maxcycle=500,conver=3) NMR=GIAO Scrf=(solvent=Dichlor
 omethane)
 ----------------------------------------------------------------------
 1/38=1/1;
 2/12=2,17=6,18=5,40=1/2;
 3/5=7,11=2,16=1,25=1,30=1,70=2201,72=9,74=1009/1,2,8,3;
 4//1;
 5/5=2,6=3,7=500,38=5,53=9/2;
 8/6=1,10=90,11=11/1;
 10/13=100,45=16/2;
 6/7=2,8=2,9=2,10=2,28=1/1;
 99/9=1/99;
 Leave Link    1 at Thu Dec 12 18:37:09 2019, MaxMem=  4026531840 cpu:         4.6
 (Enter /scr/programs/g09/l101.exe)
 ------------
 estrutura 96
 ------------
 Symbolic Z-matrix:
 Charge =  0 Multiplicity = 1
 Pt                    0.27497   0.27588  -0.27592 
 P                    -1.88591   1.45678   0.05352 
 P                    -0.36249  -1.91089   0.10697 
 C                    -2.57456   2.17594  -1.49807 
 C                    -3.68524   3.04406  -1.46446 
 C                    -2.02185   1.82551  -2.73867 
 C                    -4.20497   3.57345  -2.64811 
 H                    -4.15924   3.30828  -0.51573 
 C                    -2.55707   2.34023  -3.92489 
 H                    -1.17282   1.14382  -2.77884 
 C                    -3.63846   3.22267  -3.88222 
 H                    -5.05681   4.25933  -2.60649 
 H                    -2.12348   2.0497   -4.8829 
 H                    -4.05071   3.63367  -4.80765 
 C                    -1.4405    2.87708   1.1533 
 C                    -0.87829   2.59573   2.41273 
 C                    -1.55674   4.21893   0.75573 
 C                    -0.48945   3.62647   3.27212 
 H                    -0.72357   1.56323   2.72766 
 C                    -1.1591    5.25019   1.61361 
 H                    -1.93673   4.47327  -0.23329 
 C                    -0.63368   4.9605    2.87564 
 H                    -0.06228   3.38313   4.24839 
 H                    -1.25532   6.28815   1.28375 
 H                    -0.32407   5.76865   3.54297 
 C                    -3.4036    0.71693   0.82583 
 C                    -4.34235   0.08081  -0.00799 
 C                    -3.65069   0.75608   2.20991 
 C                    -5.50306  -0.48456   0.52645 
 H                    -4.17927   0.0332   -1.08579 
 C                    -4.81007   0.18232   2.74202 
 H                    -2.95439   1.25024   2.8868 
 C                    -5.74067  -0.4372    1.90325 
 H                    -6.22287  -0.9647   -0.1413 
 H                    -4.98498   0.22891   3.82005 
 H                    -6.6505   -0.87759   2.32034 
 C                     0.83411  -3.28472  -0.23723 
 C                     0.76188  -4.09055  -1.38449 
 C                     1.83453  -3.54444   0.71625 
 C                     1.67288  -5.13479  -1.57074 
 H                    -0.00757  -3.92067  -2.13694 
 C                     2.74515  -4.58327   0.52243 
 H                     1.92024  -2.92535   1.61061 
 C                     2.66607  -5.38461  -0.62058 
 H                     1.60071  -5.75603  -2.46709 
 H                     3.52238  -4.76355   1.26955 
 H                     3.37766  -6.20062  -0.76999 
 C                    -1.76213  -2.27779  -1.03922 
 C                    -2.96182  -2.89637  -0.65728 
 C                    -1.57426  -1.9343   -2.39274 
 C                    -3.94128  -3.18958  -1.61349 
 H                    -3.15534  -3.14131   0.38626 
 C                    -2.5528   -2.22927  -3.34394 
 H                    -0.65196  -1.43744  -2.70461 
 C                    -3.73853  -2.86378  -2.95651 
 H                    -4.87063  -3.66982  -1.2985 
 H                    -2.38784  -1.96096  -4.39041 
 H                    -4.50458  -3.09726  -3.70038 
 C                    -0.85688  -2.32822   1.83113 
 C                    -1.3779   -3.59854   2.14812 
 C                    -0.60965  -1.41674   2.86847 
 C                    -1.69564  -3.92141   3.46915 
 H                    -1.52063  -4.35033   1.36884 
 C                    -0.91076  -1.74853   4.19368 
 H                    -0.14694  -0.45564   2.63841 
 C                    -1.46797  -2.99441   4.49392 
 H                    -2.11282  -4.90494   3.69994 
 H                    -0.70278  -1.03112   4.99133 
 H                    -1.71086  -3.25277   5.52801 
 Sn                    2.89615  -0.02403  -0.41485 
 Cl                    1.06087   2.46027  -1.07797 
 Cl                    3.7147   -1.71033  -2.00043 
 C                     4.47676   1.44788  -0.78259 
 H                     5.39145   0.83396  -0.78103 
 H                     4.314     1.80718  -1.81082 
 Cl                    3.73901  -0.79946   1.78608 
 C                     4.56076   2.59985   0.21593 
 H                     3.62656   3.18429   0.18262 
 H                     4.64162   2.20146   1.24189 
 C                     5.75212   3.53408  -0.05154 
 H                     5.71483   3.87835  -1.10323 
 H                     6.69333   2.95763   0.04461 
 C                     5.79317   4.74785   0.87869 
 H                     6.67449   5.38004   0.67834 
 H                     4.89549   5.37765   0.75206 
 H                     5.83471   4.4412    1.93798 
 
 NAtoms=     86 NQM=       86 NQMF=       0 NMMI=      0 NMMIF=      0
                NMic=       0 NMicF=      0.
                    Isotopes and Nuclear Properties:
 (Nuclear quadrupole moments (NQMom) in fm**2, nuclear magnetic moments (NMagM)
  in nuclear magnetons)

  Atom         1           2           3           4           5           6           7           8           9          10
 IAtWgt=         195          31          31          12          12          12          12           1          12           1
 AtmWgt= 194.9648000  30.9737634  30.9737634  12.0000000  12.0000000  12.0000000  12.0000000   1.0078250  12.0000000   1.0078250
 NucSpn=           1           1           1           0           0           0           0           1           0           1
 AtZEff=   0.0000000   0.0000000   0.0000000   0.0000000   0.0000000   0.0000000   0.0000000   0.0000000   0.0000000   0.0000000
 NQMom=    0.0000000   0.0000000   0.0000000   0.0000000   0.0000000   0.0000000   0.0000000   0.0000000   0.0000000   0.0000000
 NMagM=    0.6095000   1.1316000   1.1316000   0.0000000   0.0000000   0.0000000   0.0000000   2.7928460   0.0000000   2.7928460
 AtZNuc=  78.0000000  15.0000000  15.0000000   6.0000000   6.0000000   6.0000000   6.0000000   1.0000000   6.0000000   1.0000000

  Atom        11          12          13          14          15          16          17          18          19          20
 IAtWgt=          12           1           1           1          12          12          12          12           1          12
 AtmWgt=  12.0000000   1.0078250   1.0078250   1.0078250  12.0000000  12.0000000  12.0000000  12.0000000   1.0078250  12.0000000
 NucSpn=           0           1           1           1           0           0           0           0           1           0
 AtZEff=   0.0000000   0.0000000   0.0000000   0.0000000   0.0000000   0.0000000   0.0000000   0.0000000   0.0000000   0.0000000
 NQMom=    0.0000000   0.0000000   0.0000000   0.0000000   0.0000000   0.0000000   0.0000000   0.0000000   0.0000000   0.0000000
 NMagM=    0.0000000   2.7928460   2.7928460   2.7928460   0.0000000   0.0000000   0.0000000   0.0000000   2.7928460   0.0000000
 AtZNuc=   6.0000000   1.0000000   1.0000000   1.0000000   6.0000000   6.0000000   6.0000000   6.0000000   1.0000000   6.0000000

  Atom        21          22          23          24          25          26          27          28          29          30
 IAtWgt=           1          12           1           1           1          12          12          12          12           1
 AtmWgt=   1.0078250  12.0000000   1.0078250   1.0078250   1.0078250  12.0000000  12.0000000  12.0000000  12.0000000   1.0078250
 NucSpn=           1           0           1           1           1           0           0           0           0           1
 AtZEff=   0.0000000   0.0000000   0.0000000   0.0000000   0.0000000   0.0000000   0.0000000   0.0000000   0.0000000   0.0000000
 NQMom=    0.0000000   0.0000000   0.0000000   0.0000000   0.0000000   0.0000000   0.0000000   0.0000000   0.0000000   0.0000000
 NMagM=    2.7928460   0.0000000   2.7928460   2.7928460   2.7928460   0.0000000   0.0000000   0.0000000   0.0000000   2.7928460
 AtZNuc=   1.0000000   6.0000000   1.0000000   1.0000000   1.0000000   6.0000000   6.0000000   6.0000000   6.0000000   1.0000000

  Atom        31          32          33          34          35          36          37          38          39          40
 IAtWgt=          12           1          12           1           1           1          12          12          12          12
 AtmWgt=  12.0000000   1.0078250  12.0000000   1.0078250   1.0078250   1.0078250  12.0000000  12.0000000  12.0000000  12.0000000
 NucSpn=           0           1           0           1           1           1           0           0           0           0
 AtZEff=   0.0000000   0.0000000   0.0000000   0.0000000   0.0000000   0.0000000   0.0000000   0.0000000   0.0000000   0.0000000
 NQMom=    0.0000000   0.0000000   0.0000000   0.0000000   0.0000000   0.0000000   0.0000000   0.0000000   0.0000000   0.0000000
 NMagM=    0.0000000   2.7928460   0.0000000   2.7928460   2.7928460   2.7928460   0.0000000   0.0000000   0.0000000   0.0000000
 AtZNuc=   6.0000000   1.0000000   6.0000000   1.0000000   1.0000000   1.0000000   6.0000000   6.0000000   6.0000000   6.0000000

  Atom        41          42          43          44          45          46          47          48          49          50
 IAtWgt=           1          12           1          12           1           1           1          12          12          12
 AtmWgt=   1.0078250  12.0000000   1.0078250  12.0000000   1.0078250   1.0078250   1.0078250  12.0000000  12.0000000  12.0000000
 NucSpn=           1           0           1           0           1           1           1           0           0           0
 AtZEff=   0.0000000   0.0000000   0.0000000   0.0000000   0.0000000   0.0000000   0.0000000   0.0000000   0.0000000   0.0000000
 NQMom=    0.0000000   0.0000000   0.0000000   0.0000000   0.0000000   0.0000000   0.0000000   0.0000000   0.0000000   0.0000000
 NMagM=    2.7928460   0.0000000   2.7928460   0.0000000   2.7928460   2.7928460   2.7928460   0.0000000   0.0000000   0.0000000
 AtZNuc=   1.0000000   6.0000000   1.0000000   6.0000000   1.0000000   1.0000000   1.0000000   6.0000000   6.0000000   6.0000000

  Atom        51          52          53          54          55          56          57          58          59          60
 IAtWgt=          12           1          12           1          12           1           1           1          12          12
 AtmWgt=  12.0000000   1.0078250  12.0000000   1.0078250  12.0000000   1.0078250   1.0078250   1.0078250  12.0000000  12.0000000
 NucSpn=           0           1           0           1           0           1           1           1           0           0
 AtZEff=   0.0000000   0.0000000   0.0000000   0.0000000   0.0000000   0.0000000   0.0000000   0.0000000   0.0000000   0.0000000
 NQMom=    0.0000000   0.0000000   0.0000000   0.0000000   0.0000000   0.0000000   0.0000000   0.0000000   0.0000000   0.0000000
 NMagM=    0.0000000   2.7928460   0.0000000   2.7928460   0.0000000   2.7928460   2.7928460   2.7928460   0.0000000   0.0000000
 AtZNuc=   6.0000000   1.0000000   6.0000000   1.0000000   6.0000000   1.0000000   1.0000000   1.0000000   6.0000000   6.0000000

  Atom        61          62          63          64          65          66          67          68          69          70
 IAtWgt=          12          12           1          12           1          12           1           1           1         118
 AtmWgt=  12.0000000  12.0000000   1.0078250  12.0000000   1.0078250  12.0000000   1.0078250   1.0078250   1.0078250 117.9018000
 NucSpn=           0           0           1           0           1           0           1           1           1           0
 AtZEff=   0.0000000   0.0000000   0.0000000   0.0000000   0.0000000   0.0000000   0.0000000   0.0000000   0.0000000   0.0000000
 NQMom=    0.0000000   0.0000000   0.0000000   0.0000000   0.0000000   0.0000000   0.0000000   0.0000000   0.0000000   0.0000000
 NMagM=    0.0000000   0.0000000   2.7928460   0.0000000   2.7928460   0.0000000   2.7928460   2.7928460   2.7928460   0.0000000
 AtZNuc=   6.0000000   6.0000000   1.0000000   6.0000000   1.0000000   6.0000000   1.0000000   1.0000000   1.0000000  50.0000000

  Atom        71          72          73          74          75          76          77          78          79          80
 IAtWgt=          35          35          12           1           1          35          12           1           1          12
 AtmWgt=  34.9688527  34.9688527  12.0000000   1.0078250   1.0078250  34.9688527  12.0000000   1.0078250   1.0078250  12.0000000
 NucSpn=           3           3           0           1           1           3           0           1           1           0
 AtZEff=   0.0000000   0.0000000   0.0000000   0.0000000   0.0000000   0.0000000   0.0000000   0.0000000   0.0000000   0.0000000
 NQMom=   -8.1650000  -8.1650000   0.0000000   0.0000000   0.0000000  -8.1650000   0.0000000   0.0000000   0.0000000   0.0000000
 NMagM=    0.8218740   0.8218740   0.0000000   2.7928460   2.7928460   0.8218740   0.0000000   2.7928460   2.7928460   0.0000000
 AtZNuc=  17.0000000  17.0000000   6.0000000   1.0000000   1.0000000  17.0000000   6.0000000   1.0000000   1.0000000   6.0000000

  Atom        81          82          83          84          85          86
 IAtWgt=           1           1          12           1           1           1
 AtmWgt=   1.0078250   1.0078250  12.0000000   1.0078250   1.0078250   1.0078250
 NucSpn=           1           1           0           1           1           1
 AtZEff=   0.0000000   0.0000000   0.0000000   0.0000000   0.0000000   0.0000000
 NQMom=    0.0000000   0.0000000   0.0000000   0.0000000   0.0000000   0.0000000
 NMagM=    2.7928460   2.7928460   0.0000000   2.7928460   2.7928460   2.7928460
 AtZNuc=   1.0000000   1.0000000   6.0000000   1.0000000   1.0000000   1.0000000
 Leave Link  101 at Thu Dec 12 18:37:10 2019, MaxMem=  4026531840 cpu:         6.2
 (Enter /scr/programs/g09/l202.exe)
 Stoichiometry    C40H39Cl3P2PtSn
 Framework group  C1[X(C40H39Cl3P2PtSn)]
 Deg. of freedom   252
 Full point group                 C1      NOp   1
 Largest Abelian subgroup         C1      NOp   1
 Largest concise Abelian subgroup C1      NOp   1
                         Standard orientation:                         
 ---------------------------------------------------------------------
 Center     Atomic      Atomic             Coordinates (Angstroms)
 Number     Number       Type             X           Y           Z
 ---------------------------------------------------------------------
      1         78           0        0.274966    0.275882   -0.275924
      2         15           0       -1.885908    1.456778    0.053520
      3         15           0       -0.362490   -1.910890    0.106974
      4          6           0       -2.574564    2.175944   -1.498069
      5          6           0       -3.685243    3.044058   -1.464462
      6          6           0       -2.021850    1.825511   -2.738667
      7          6           0       -4.204967    3.573451   -2.648108
      8          1           0       -4.159237    3.308281   -0.515732
      9          6           0       -2.557070    2.340228   -3.924893
     10          1           0       -1.172818    1.143820   -2.778841
     11          6           0       -3.638459    3.222666   -3.882216
     12          1           0       -5.056810    4.259327   -2.606491
     13          1           0       -2.123484    2.049700   -4.882901
     14          1           0       -4.050714    3.633672   -4.807646
     15          6           0       -1.440504    2.877083    1.153299
     16          6           0       -0.878285    2.595726    2.412728
     17          6           0       -1.556735    4.218932    0.755733
     18          6           0       -0.489448    3.626465    3.272117
     19          1           0       -0.723571    1.563225    2.727661
     20          6           0       -1.159101    5.250193    1.613611
     21          1           0       -1.936730    4.473274   -0.233287
     22          6           0       -0.633680    4.960497    2.875637
     23          1           0       -0.062281    3.383133    4.248394
     24          1           0       -1.255322    6.288152    1.283751
     25          1           0       -0.324073    5.768651    3.542973
     26          6           0       -3.403601    0.716927    0.825825
     27          6           0       -4.342350    0.080810   -0.007991
     28          6           0       -3.650690    0.756079    2.209912
     29          6           0       -5.503056   -0.484563    0.526450
     30          1           0       -4.179270    0.033202   -1.085786
     31          6           0       -4.810072    0.182322    2.742017
     32          1           0       -2.954385    1.250244    2.886797
     33          6           0       -5.740674   -0.437198    1.903248
     34          1           0       -6.222868   -0.964704   -0.141295
     35          1           0       -4.984985    0.228910    3.820054
     36          1           0       -6.650502   -0.877585    2.320336
     37          6           0        0.834114   -3.284719   -0.237231
     38          6           0        0.761878   -4.090554   -1.384492
     39          6           0        1.834526   -3.544436    0.716248
     40          6           0        1.672876   -5.134786   -1.570741
     41          1           0       -0.007565   -3.920669   -2.136938
     42          6           0        2.745154   -4.583274    0.522429
     43          1           0        1.920244   -2.925354    1.610609
     44          6           0        2.666073   -5.384607   -0.620579
     45          1           0        1.600709   -5.756031   -2.467087
     46          1           0        3.522380   -4.763551    1.269553
     47          1           0        3.377664   -6.200621   -0.769988
     48          6           0       -1.762129   -2.277793   -1.039218
     49          6           0       -2.961817   -2.896374   -0.657283
     50          6           0       -1.574260   -1.934301   -2.392736
     51          6           0       -3.941282   -3.189576   -1.613490
     52          1           0       -3.155339   -3.141307    0.386263
     53          6           0       -2.552803   -2.229268   -3.343939
     54          1           0       -0.651956   -1.437435   -2.704607
     55          6           0       -3.738531   -2.863783   -2.956506
     56          1           0       -4.870630   -3.669821   -1.298502
     57          1           0       -2.387844   -1.960958   -4.390412
     58          1           0       -4.504579   -3.097260   -3.700383
     59          6           0       -0.856883   -2.328215    1.831126
     60          6           0       -1.377904   -3.598538    2.148121
     61          6           0       -0.609645   -1.416741    2.868468
     62          6           0       -1.695638   -3.921414    3.469146
     63          1           0       -1.520631   -4.350333    1.368838
     64          6           0       -0.910764   -1.748531    4.193684
     65          1           0       -0.146936   -0.455644    2.638410
     66          6           0       -1.467966   -2.994407    4.493918
     67          1           0       -2.112824   -4.904942    3.699939
     68          1           0       -0.702778   -1.031115    4.991326
     69          1           0       -1.710857   -3.252773    5.528014
     70         50           0        2.896153   -0.024027   -0.414854
     71         17           0        1.060874    2.460270   -1.077973
     72         17           0        3.714695   -1.710331   -2.000432
     73          6           0        4.476758    1.447878   -0.782585
     74          1           0        5.391452    0.833958   -0.781033
     75          1           0        4.313998    1.807176   -1.810815
     76         17           0        3.739008   -0.799464    1.786075
     77          6           0        4.560755    2.599852    0.215925
     78          1           0        3.626564    3.184290    0.182621
     79          1           0        4.641616    2.201456    1.241895
     80          6           0        5.752122    3.534083   -0.051536
     81          1           0        5.714827    3.878350   -1.103231
     82          1           0        6.693331    2.957634    0.044610
     83          6           0        5.793167    4.747854    0.878694
     84          1           0        6.674486    5.380045    0.678340
     85          1           0        4.895487    5.377650    0.752055
     86          1           0        5.834708    4.441200    1.937975
 ---------------------------------------------------------------------
 Rotational constants (GHZ):      0.0578461      0.0488370      0.0385538
 Leave Link  202 at Thu Dec 12 18:37:10 2019, MaxMem=  4026531840 cpu:         2.1
 (Enter /scr/programs/g09/l301.exe)
 General basis read from cards:  (5D, 7F)
 Centers:       8     10     12     13     14     19     21     23     24     25
 Centers:      30     32     34     35     36     41     43     45     46     47
 Centers:      52     54     56     57     58     63     65     67     68     69
 Centers:      74     75     78     79     81     82     84     85     86
 S 5 1.00
     Exponent=  2.8295215633D+02 Coefficients=  4.3000000000D-04
     Exponent=  8.7062201949D+01 Coefficients=  5.1000000000D-04
     Exponent=  2.6788369830D+01 Coefficients=  6.1600000000D-03
     Exponent=  8.2425753324D+00 Coefficients=  1.3030000000D-02
     Exponent=  2.5361770254D+00 Coefficients=  9.9490000000D-02
 S 1 1.00
     Exponent=  7.8036216165D-01 Coefficients=  1.0000000000D+00
 S 1 1.00
     Exponent=  2.4011143435D-01 Coefficients=  1.0000000000D+00
 P 1 1.00
     Exponent=  8.8150000000D-01 Coefficients=  1.0000000000D+00
 P 1 1.00
     Exponent=  1.7989200000D-01 Coefficients=  1.0000000000D+00
 ****
 Centers:       4      5      6      7      9     11     15     16     17     18
 Centers:      20     22     26     27     28     29     31     33     37     38
 Centers:      39     40     42     44     48     49     50     51     53     55
 Centers:      59     60     61     62     64     66     73     77     80     83
 S 6 1.00
     Exponent=  8.8461235339D+03 Coefficients=  5.3000000000D-04
     Exponent=  2.9487078446D+03 Coefficients=  7.7000000000D-04
     Exponent=  9.8290261488D+02 Coefficients=  4.0500000000D-03
     Exponent=  3.2763420496D+02 Coefficients=  1.4030000000D-02
     Exponent=  1.0921140165D+02 Coefficients=  5.3450000000D-02
     Exponent=  3.6403800551D+01 Coefficients=  1.7027000000D-01
 S 1 1.00
     Exponent=  1.2134600184D+01 Coefficients=  1.0000000000D+00
 S 1 1.00
     Exponent=  4.0448667279D+00 Coefficients=  1.0000000000D+00
 S 1 1.00
     Exponent=  1.3482889093D+00 Coefficients=  1.0000000000D+00
 S 1 1.00
     Exponent=  4.4942963643D-01 Coefficients=  1.0000000000D+00
 S 1 1.00
     Exponent=  1.4980987881D-01 Coefficients=  1.0000000000D+00
 P 4 1.00
     Exponent=  3.7294093393D+01 Coefficients=  3.9600000000D-03
     Exponent=  1.1475105659D+01 Coefficients=  1.8890000000D-02
     Exponent=  3.5308017414D+00 Coefficients=  9.4610000000D-02
     Exponent=  1.0864005358D+00 Coefficients=  3.1889000000D-01
 P 1 1.00
     Exponent=  3.3427708794D-01 Coefficients=  1.0000000000D+00
 P 1 1.00
     Exponent=  1.0285448860D-01 Coefficients=  1.0000000000D+00
 D 1 1.00
     Exponent=  4.7750000000D-01 Coefficients=  1.0000000000D+00
 D 1 1.00
     Exponent=  1.1998000000D-01 Coefficients=  1.0000000000D+00
 ****
 Centers:       2      3
 S 7 1.00
     Exponent=  5.9538004301D+04 Coefficients=  9.5000000000D-04
     Exponent=  2.1650183382D+04 Coefficients=  6.1000000000D-04
     Exponent=  7.8727939572D+03 Coefficients=  3.7500000000D-03
     Exponent=  2.8628341663D+03 Coefficients=  9.6300000000D-03
     Exponent=  1.0410306059D+03 Coefficients=  3.2430000000D-02
     Exponent=  3.7855658397D+02 Coefficients=  9.9500000000D-02
     Exponent=  1.3765693962D+02 Coefficients=  2.6570000000D-01
 S 1 1.00
     Exponent=  5.0057068954D+01 Coefficients=  1.0000000000D+00
 S 1 1.00
     Exponent=  1.8202570529D+01 Coefficients=  1.0000000000D+00
 S 1 1.00
     Exponent=  6.6191165560D+00 Coefficients=  1.0000000000D+00
 S 1 1.00
     Exponent=  2.4069514749D+00 Coefficients=  1.0000000000D+00
 S 1 1.00
     Exponent=  8.7525508178D-01 Coefficients=  1.0000000000D+00
 S 1 1.00
     Exponent=  3.1827457519D-01 Coefficients=  1.0000000000D+00
 S 1 1.00
     Exponent=  1.1573620916D-01 Coefficients=  1.0000000000D+00
 S 1 1.00
     Exponent=  4.2085894240D-02 Coefficients=  1.0000000000D+00
 P 5 1.00
     Exponent=  4.8799672315D+02 Coefficients=  2.1600000000D-03
     Exponent=  1.6266557438D+02 Coefficients=  9.7900000000D-03
     Exponent=  5.4221858128D+01 Coefficients=  5.4850000000D-02
     Exponent=  1.8073952709D+01 Coefficients=  2.1770000000D-01
     Exponent=  6.0246509031D+00 Coefficients=  4.8978000000D-01
 P 1 1.00
     Exponent=  2.0082169677D+00 Coefficients=  1.0000000000D+00
 P 1 1.00
     Exponent=  6.6940565590D-01 Coefficients=  1.0000000000D+00
 P 1 1.00
     Exponent=  2.2313521863D-01 Coefficients=  1.0000000000D+00
 P 1 1.00
     Exponent=  7.4378406211D-02 Coefficients=  1.0000000000D+00
 P 1 1.00
     Exponent=  2.4792802070D-02 Coefficients=  1.0000000000D+00
 D 1 1.00
     Exponent=  3.5395000000D-01 Coefficients=  1.0000000000D+00
 D 1 1.00
     Exponent=  8.9098000000D-02 Coefficients=  1.0000000000D+00
 ****
 Centers:      71     72     76
 S 7 1.00
     Exponent=  7.7142817164D+04 Coefficients=  1.0600000000D-03
     Exponent=  2.8051933514D+04 Coefficients=  6.4000000000D-04
     Exponent=  1.0200703096D+04 Coefficients=  3.9600000000D-03
     Exponent=  3.7093465804D+03 Coefficients=  9.8300000000D-03
     Exponent=  1.3488533020D+03 Coefficients=  3.2690000000D-02
     Exponent=  4.9049210981D+02 Coefficients=  9.9520000000D-02
     Exponent=  1.7836076720D+02 Coefficients=  2.6555000000D-01
 S 1 1.00
     Exponent=  6.4858460801D+01 Coefficients=  1.0000000000D+00
 S 1 1.00
     Exponent=  2.3584894837D+01 Coefficients=  1.0000000000D+00
 S 1 1.00
     Exponent=  8.5763253951D+00 Coefficients=  1.0000000000D+00
 S 1 1.00
     Exponent=  3.1186637801D+00 Coefficients=  1.0000000000D+00
 S 1 1.00
     Exponent=  1.1340595564D+00 Coefficients=  1.0000000000D+00
 S 1 1.00
     Exponent=  4.1238529323D-01 Coefficients=  1.0000000000D+00
 S 1 1.00
     Exponent=  1.4995828845D-01 Coefficients=  1.0000000000D+00
 S 1 1.00
     Exponent=  5.4530286708D-02 Coefficients=  1.0000000000D+00
 P 5 1.00
     Exponent=  6.9498536057D+02 Coefficients=  2.0000000000D-03
     Exponent=  2.3166178686D+02 Coefficients=  8.9500000000D-03
     Exponent=  7.7220595619D+01 Coefficients=  5.1130000000D-02
     Exponent=  2.5740198540D+01 Coefficients=  2.1011000000D-01
     Exponent=  8.5800661799D+00 Coefficients=  4.9738000000D-01
 P 1 1.00
     Exponent=  2.8600220600D+00 Coefficients=  1.0000000000D+00
 P 1 1.00
     Exponent=  9.5334068665D-01 Coefficients=  1.0000000000D+00
 P 1 1.00
     Exponent=  3.1778022888D-01 Coefficients=  1.0000000000D+00
 P 1 1.00
     Exponent=  1.0592674296D-01 Coefficients=  1.0000000000D+00
 P 1 1.00
     Exponent=  3.5308914320D-02 Coefficients=  1.0000000000D+00
 D 1 1.00
     Exponent=  5.5696000000D-01 Coefficients=  1.0000000000D+00
 D 1 1.00
     Exponent=  1.5619100000D-01 Coefficients=  1.0000000000D+00
 ****
 Centers:      70
 S 8 1.00
     Exponent=  7.5448214551D+05 Coefficients=  4.4300000000D-03
     Exponent=  3.3532539800D+05 Coefficients=  1.9800000000D-03
     Exponent=  1.4903351022D+05 Coefficients=  9.0500000000D-03
     Exponent=  6.6237115655D+04 Coefficients=  4.8700000000D-03
     Exponent=  2.9438718069D+04 Coefficients=  2.0770000000D-02
     Exponent=  1.3083874697D+04 Coefficients=  3.2900000000D-02
     Exponent=  5.8150554210D+03 Coefficients=  7.7010000000D-02
     Exponent=  2.5844690760D+03 Coefficients=  1.5160000000D-01
 S 1 1.00
     Exponent=  1.1486529227D+03 Coefficients=  1.0000000000D+00
 S 1 1.00
     Exponent=  5.1051241008D+02 Coefficients=  1.0000000000D+00
 S 1 1.00
     Exponent=  2.2689440448D+02 Coefficients=  1.0000000000D+00
 S 1 1.00
     Exponent=  1.0084195755D+02 Coefficients=  1.0000000000D+00
 S 1 1.00
     Exponent=  4.4818647798D+01 Coefficients=  1.0000000000D+00
 S 1 1.00
     Exponent=  1.9919399021D+01 Coefficients=  1.0000000000D+00
 S 1 1.00
     Exponent=  8.8530662317D+00 Coefficients=  1.0000000000D+00
 S 1 1.00
     Exponent=  3.9346961030D+00 Coefficients=  1.0000000000D+00
 S 1 1.00
     Exponent=  1.7487538235D+00 Coefficients=  1.0000000000D+00
 S 1 1.00
     Exponent=  7.7722392158D-01 Coefficients=  1.0000000000D+00
 S 1 1.00
     Exponent=  3.4543285403D-01 Coefficients=  1.0000000000D+00
 S 1 1.00
     Exponent=  1.5352571290D-01 Coefficients=  1.0000000000D+00
 S 1 1.00
     Exponent=  6.8233650180D-02 Coefficients=  1.0000000000D+00
 S 1 1.00
     Exponent=  1.3478251887D-02 Coefficients=  1.0000000000D+00
 P 5 1.00
     Exponent=  1.0090658304D+04 Coefficients=  2.7500000000D-03
     Exponent=  4.0362633217D+03 Coefficients=  4.1800000000D-03
     Exponent=  1.6145053287D+03 Coefficients=  2.0890000000D-02
     Exponent=  6.4580213147D+02 Coefficients=  7.1370000000D-02
     Exponent=  2.5832085259D+02 Coefficients=  2.2613000000D-01
 P 1 1.00
     Exponent=  1.0332834104D+02 Coefficients=  1.0000000000D+00
 P 1 1.00
     Exponent=  4.1331336414D+01 Coefficients=  1.0000000000D+00
 P 1 1.00
     Exponent=  1.6532534566D+01 Coefficients=  1.0000000000D+00
 P 1 1.00
     Exponent=  6.6130138263D+00 Coefficients=  1.0000000000D+00
 P 1 1.00
     Exponent=  2.6452055305D+00 Coefficients=  1.0000000000D+00
 P 1 1.00
     Exponent=  1.0580822122D+00 Coefficients=  1.0000000000D+00
 P 1 1.00
     Exponent=  4.2323288488D-01 Coefficients=  1.0000000000D+00
 P 1 1.00
     Exponent=  1.6929315395D-01 Coefficients=  1.0000000000D+00
 P 1 1.00
     Exponent=  6.7717261581D-02 Coefficients=  1.0000000000D+00
 P 1 1.00
     Exponent=  2.7086904632D-02 Coefficients=  1.0000000000D+00
 P 1 1.00
     Exponent=  1.0834761853D-02 Coefficients=  1.0000000000D+00
 D 4 1.00
     Exponent=  5.5430250651D+02 Coefficients=  4.3700000000D-03
     Exponent=  2.0156454782D+02 Coefficients=  2.5110000000D-02
     Exponent=  7.3296199207D+01 Coefficients=  1.3316000000D-01
     Exponent=  2.6653163348D+01 Coefficients=  3.8900000000D-01
 D 1 1.00
     Exponent=  9.6920593993D+00 Coefficients=  1.0000000000D+00
 D 1 1.00
     Exponent=  3.5243852361D+00 Coefficients=  1.0000000000D+00
 D 1 1.00
     Exponent=  1.2815946313D+00 Coefficients=  1.0000000000D+00
 D 1 1.00
     Exponent=  4.6603441139D-01 Coefficients=  1.0000000000D+00
 D 1 1.00
     Exponent=  1.6946705869D-01 Coefficients=  1.0000000000D+00
 F 1 1.00
     Exponent=  1.3140000000D+00 Coefficients=  1.0000000000D+00
 F 1 1.00
     Exponent=  1.9993000000D-01 Coefficients=  1.0000000000D+00
 ****
 Centers:       1
 S 9 1.00
     Exponent=  2.1644816090D+06 Coefficients=  1.2320000000D-02
     Exponent=  1.0822408045D+06 Coefficients=  1.2970000000D-02
     Exponent=  5.4112040224D+05 Coefficients=  2.6370000000D-02
     Exponent=  2.7056020112D+05 Coefficients=  9.0400000000D-03
     Exponent=  1.3528010056D+05 Coefficients=  3.4980000000D-02
     Exponent=  6.7640050280D+04 Coefficients=  1.2220000000D-02
     Exponent=  3.3820025140D+04 Coefficients=  6.0520000000D-02
     Exponent=  1.6910012570D+04 Coefficients=  6.4930000000D-02
     Exponent=  8.4550062850D+03 Coefficients=  1.3819000000D-01
 S 1 1.00
     Exponent=  4.2275031425D+03 Coefficients=  1.0000000000D+00
 S 1 1.00
     Exponent=  2.1137515713D+03 Coefficients=  1.0000000000D+00
 S 1 1.00
     Exponent=  1.0568757856D+03 Coefficients=  1.0000000000D+00
 S 1 1.00
     Exponent=  5.2843789281D+02 Coefficients=  1.0000000000D+00
 S 1 1.00
     Exponent=  2.6421894641D+02 Coefficients=  1.0000000000D+00
 S 1 1.00
     Exponent=  1.3210947320D+02 Coefficients=  1.0000000000D+00
 S 1 1.00
     Exponent=  6.6054736602D+01 Coefficients=  1.0000000000D+00
 S 1 1.00
     Exponent=  3.3027368301D+01 Coefficients=  1.0000000000D+00
 S 1 1.00
     Exponent=  1.6513684150D+01 Coefficients=  1.0000000000D+00
 S 1 1.00
     Exponent=  8.2568420752D+00 Coefficients=  1.0000000000D+00
 S 1 1.00
     Exponent=  4.1284210376D+00 Coefficients=  1.0000000000D+00
 S 1 1.00
     Exponent=  2.0642105188D+00 Coefficients=  1.0000000000D+00
 S 1 1.00
     Exponent=  1.0321052594D+00 Coefficients=  1.0000000000D+00
 S 1 1.00
     Exponent=  5.1605262970D-01 Coefficients=  1.0000000000D+00
 S 1 1.00
     Exponent=  2.5802631485D-01 Coefficients=  1.0000000000D+00
 S 1 1.00
     Exponent=  1.2901315743D-01 Coefficients=  1.0000000000D+00
 S 1 1.00
     Exponent=  6.4506578713D-02 Coefficients=  1.0000000000D+00
 P 7 1.00
     Exponent=  3.2357915258D+04 Coefficients=  5.0200000000D-03
     Exponent=  1.4381295670D+04 Coefficients=  2.0200000000D-03
     Exponent=  6.3916869645D+03 Coefficients=  1.8070000000D-02
     Exponent=  2.8407497620D+03 Coefficients=  3.6620000000D-02
     Exponent=  1.2625554498D+03 Coefficients=  1.1172000000D-01
     Exponent=  5.6113575545D+02 Coefficients=  2.5586000000D-01
     Exponent=  2.4939366909D+02 Coefficients=  4.2608000000D-01
 P 1 1.00
     Exponent=  1.1084163071D+02 Coefficients=  1.0000000000D+00
 P 1 1.00
     Exponent=  4.9262946981D+01 Coefficients=  1.0000000000D+00
 P 1 1.00
     Exponent=  2.1894643103D+01 Coefficients=  1.0000000000D+00
 P 1 1.00
     Exponent=  9.7309524900D+00 Coefficients=  1.0000000000D+00
 P 1 1.00
     Exponent=  4.3248677733D+00 Coefficients=  1.0000000000D+00
 P 1 1.00
     Exponent=  1.9221634548D+00 Coefficients=  1.0000000000D+00
 P 1 1.00
     Exponent=  8.5429486881D-01 Coefficients=  1.0000000000D+00
 P 1 1.00
     Exponent=  3.7968660836D-01 Coefficients=  1.0000000000D+00
 P 1 1.00
     Exponent=  1.6874960372D-01 Coefficients=  1.0000000000D+00
 P 1 1.00
     Exponent=  7.4999823874D-02 Coefficients=  1.0000000000D+00
 P 1 1.00
     Exponent=  3.3333255055D-02 Coefficients=  1.0000000000D+00
 D 5 1.00
     Exponent=  1.9119003508D+03 Coefficients=  4.3300000000D-03
     Exponent=  7.6476014031D+02 Coefficients=  1.7780000000D-02
     Exponent=  3.0590405613D+02 Coefficients=  8.9710000000D-02
     Exponent=  1.2236162245D+02 Coefficients=  3.1123000000D-01
     Exponent=  4.8944648980D+01 Coefficients=  5.3206000000D-01
 D 1 1.00
     Exponent=  1.9577859592D+01 Coefficients=  1.0000000000D+00
 D 1 1.00
     Exponent=  7.8311438368D+00 Coefficients=  1.0000000000D+00
 D 1 1.00
     Exponent=  3.1324575347D+00 Coefficients=  1.0000000000D+00
 D 1 1.00
     Exponent=  1.2529830139D+00 Coefficients=  1.0000000000D+00
 D 1 1.00
     Exponent=  5.0119320556D-01 Coefficients=  1.0000000000D+00
 D 1 1.00
     Exponent=  2.0047728222D-01 Coefficients=  1.0000000000D+00
 D 1 1.00
     Exponent=  8.0190912889D-02 Coefficients=  1.0000000000D+00
 D 1 1.00
     Exponent=  3.2076365156D-02 Coefficients=  1.0000000000D+00
 F 4 1.00
     Exponent=  8.2289680979D+01 Coefficients=  6.1870000000D-02
     Exponent=  2.9923520356D+01 Coefficients=  2.4823000000D-01
     Exponent=  1.0881280130D+01 Coefficients=  4.9956000000D-01
     Exponent=  3.9568291380D+00 Coefficients=  4.0380000000D-01
 F 1 1.00
     Exponent=  1.4388469593D+00 Coefficients=  1.0000000000D+00
 F 1 1.00
     Exponent=  5.2321707610D-01 Coefficients=  1.0000000000D+00
 G 1 1.00
     Exponent=  2.6700000000D+00 Coefficients=  1.0000000000D+00
 G 1 1.00
     Exponent=  9.0960000000D-01 Coefficients=  1.0000000000D+00
 ****
 Ernie: Thresh=  0.10000D-02 Tol=  0.10000D-05 Strict=F.
 There are  1901 symmetry adapted cartesian basis functions of A   symmetry.
 There are  1769 symmetry adapted basis functions of A   symmetry.
  1769 basis functions,  2824 primitive gaussians,  1901 cartesian basis functions
   244 alpha electrons      244 beta electrons
       nuclear repulsion energy     12862.1170676547 Hartrees.
 IExCor= 1009 DFT=T Ex=PBE Corr=PBE ExCW=0 ScaHFX=  0.000000
 ScaDFX=  1.000000  1.000000  1.000000  1.000000 ScalE2=  1.000000  1.000000
 IRadAn=      0 IRanWt=     -1 IRanGd=            0 ICorTp=0 IEmpDi=  4
 NAtoms=   86 NActive=   86 NUniq=   86 SFac= 1.00D+00 NAtFMM=   60 NAOKFM=T Big=T
 Integral buffers will be    131072 words long.
 Raffenetti 2 integral format.
 Two-electron integral symmetry is turned on.
 ------------------------------------------------------------------------------
 Polarizable Continuum Model (PCM)
 =================================
 Model                : PCM (using non-symmetric T matrix).
 Atomic radii         : UFF (Universal Force Field).
 Polarization charges : Total charges.
 Charge compensation  : None.
 Solution method      : On-the-fly selection.
 Cavity type          : Scaled VdW (van der Waals Surface) (Alpha=1.100).
 Cavity algorithm     : GePol (No added spheres)
                        Default sphere list used, NSphG=   86.
                        Lebedev-Laikov grids with approx.  5.0 points / Ang**2.
                        Smoothing algorithm: Karplus/York (Gamma=1.0000).
                        Polarization charges: spherical gaussians, with
                                              point-specific exponents (IZeta= 3).
                        Self-potential: point-specific (ISelfS= 7).
                        Self-field    : sphere-specific E.n sum rule (ISelfD= 2).
 Solvent              : Dichloromethane, Eps=   8.930000 Eps(inf)=   2.028346
 ------------------------------------------------------------------------------
 GePol: Number of generator spheres                  =      86
 GePol: Total number of spheres                      =      86
 GePol: Number of exposed spheres                    =      86 (100.00%)
 GePol: Number of points                             =    6258
 GePol: Average weight of points                     =       0.13
 GePol: Minimum weight of points                     =   0.18D-11
 GePol: Maximum weight of points                     =    0.21838
 GePol: Number of points with low weight             =     485
 GePol: Fraction of low-weight points (<1% of avg)   =       7.75%
 GePol: Cavity surface area                          =    810.483 Ang**2
 GePol: Cavity volume                                =    995.234 Ang**3
 Leave Link  301 at Thu Dec 12 18:37:10 2019, MaxMem=  4026531840 cpu:         7.4
 (Enter /scr/programs/g09/l302.exe)
 NPDir=0 NMtPBC=     1 NCelOv=     1 NCel=       1 NClECP=     1 NCelD=      1
         NCelK=      1 NCelE2=     1 NClLst=     1 CellRange=     0.0.
 One-electron integrals computed using PRISM.
 NBasis=  1769 RedAO= T EigKep=  1.52D-06  NBF=  1769
 NBsUse=  1769 1.00D-06 EigRej= -1.00D+00 NBFU=  1769
 Precomputing XC quadrature grid using
 IXCGrd= 4 IRadAn=           0 IRanWt=          -1 IRanGd=           0 AccXCQ= 0.00D+00.
 Defaulting to unpruned grid for atomic number  78.
 Defaulting to unpruned grid for atomic number  50.
 Generated NRdTot=       0 NPtTot=           0 NUsed=           0 NTot=          32
 NSgBfM=  1591  1600  1609  1613  1619 MxSgAt=    86 MxSgA2=    86.
 Leave Link  302 at Thu Dec 12 18:37:30 2019, MaxMem=  4026531840 cpu:       461.6
 (Enter /scr/programs/g09/l308.exe)
 Leave Link  308 at Thu Dec 12 18:37:34 2019, MaxMem=  4026531840 cpu:        81.2
 (Enter /scr/programs/g09/l303.exe)
 DipDrv:  MaxL=1.
 Leave Link  303 at Thu Dec 12 18:37:36 2019, MaxMem=  4026531840 cpu:        43.7
 (Enter /scr/programs/g09/l401.exe)
 ExpMin= 1.08D-02 ExpMax= 2.16D+06 ExpMxC= 2.16D+06 IAcc=4 IRadAn=    199590 AccDes= 0.00D+00
 Harris functional with IExCor= 1009 and IRadAn=  199590 diagonalized for initial guess.
 HarFok:  IExCor= 1009 AccDes= 0.00D+00 IRadAn=    199590 IDoV= 1 UseB2=F ITyADJ=14
 ICtDFT=  3500011 ScaDFX=  1.000000  1.000000  1.000000  1.000000
 FoFCou: FMM=F IPFlag=           0 FMFlag=      100000 FMFlg1=        2001
         NFxFlg=           0 DoJE=T BraDBF=F KetDBF=T FulRan=T
         wScrn=  0.000000 ICntrl=     500 IOpCl=  0 I1Cent=   200000004 NGrid=           0
         NMat0=    1 NMatS0=      1 NMatT0=    0 NMatD0=    1 NMtDS0=    0 NMtDT0=    0
 Petite list used in FoFCou.
 Harris En= -26714.3631638987    
 JPrj=0 DoOrth=F DoCkMO=F.
 Leave Link  401 at Thu Dec 12 18:40:00 2019, MaxMem=  4026531840 cpu:      3315.4
 (Enter /scr/programs/g09/l502.exe)
 Closed shell SCF:
 Using DIIS extrapolation, IDIIS=  1040.
 Integral symmetry usage will be decided dynamically.
 IVT=    11155199 IEndB=    11155199 NGot=  4026531840 MDV=  4019243344
 LenX=  4019243344 LenY=  4015627642
 Requested convergence on RMS density matrix=1.00D-03 within 500 cycles.
 Requested convergence on MAX density matrix=1.00D-01.
 Requested convergence on             energy=1.00D-01.
 No special actions if energy rises.
 Fock matrices will be formed incrementally for  20 cycles.

 Cycle   1  Pass 1  IDiag  1:
 FoFJK:  IHMeth= 1 ICntrl=     500 DoSepK=F KAlg= 0 I1Cent=   0 FoldK=F
 IRaf= 630000000 NMat=   1 IRICut=       1 DoRegI=T DoRafI=F ISym2E= 0.
 FoFCou: FMM=T IPFlag=           0 FMFlag=      100000 FMFlg1=        2001
         NFxFlg=           0 DoJE=T BraDBF=F KetDBF=F FulRan=T
         wScrn=  0.000000 ICntrl=     500 IOpCl=  0 I1Cent=           0 NGrid=           0
         NMat0=    1 NMatS0=      1 NMatT0=    0 NMatD0=    1 NMtDS0=    0 NMtDT0=    0
 Symmetry not used in FoFCou.
 FMM levels:  10  Number of levels for PrismC:   9
 Defaulting to unpruned grid for atomic number  78.
 Defaulting to unpruned grid for atomic number  78.
 Defaulting to unpruned grid for atomic number  78.
 Defaulting to unpruned grid for atomic number  78.
 Defaulting to unpruned grid for atomic number  78.
 Defaulting to unpruned grid for atomic number  78.
 Defaulting to unpruned grid for atomic number  78.
 Defaulting to unpruned grid for atomic number  78.
 Defaulting to unpruned grid for atomic number  78.
 Defaulting to unpruned grid for atomic number  78.
 Defaulting to unpruned grid for atomic number  78.
 Defaulting to unpruned grid for atomic number  78.
 Defaulting to unpruned grid for atomic number  78.
 Defaulting to unpruned grid for atomic number  78.
 Defaulting to unpruned grid for atomic number  78.
 Defaulting to unpruned grid for atomic number  78.
 Defaulting to unpruned grid for atomic number  78.
 Defaulting to unpruned grid for atomic number  78.
 Defaulting to unpruned grid for atomic number  78.
 Defaulting to unpruned grid for atomic number  78.
 Defaulting to unpruned grid for atomic number  78.
 Defaulting to unpruned grid for atomic number  78.
 Defaulting to unpruned grid for atomic number  78.
 Defaulting to unpruned grid for atomic number  78.
 Inv3:  Mode=1 IEnd=   117487692.
 Iteration    1 A*A^-1 deviation from unit magnitude is 1.30D-14 for   6091.
 Iteration    1 A*A^-1 deviation from orthogonality  is 9.16D-15 for   4092   3925.
 Iteration    1 A^-1*A deviation from unit magnitude is 1.31D-14 for   5498.
 Iteration    1 A^-1*A deviation from orthogonality  is 1.73D-09 for   4911   4905.
 Iteration    2 A*A^-1 deviation from unit magnitude is 1.11D-14 for    181.
 Iteration    2 A*A^-1 deviation from orthogonality  is 1.10D-14 for   3816    722.
 Iteration    2 A^-1*A deviation from unit magnitude is 1.78D-15 for   1905.
 Iteration    2 A^-1*A deviation from orthogonality  is 7.44D-16 for   4093   2102.
 E= -26693.9940527223    
 DIIS: error= 2.49D-01 at cycle   1 NSaved=   1.
 NSaved= 1 IEnMin= 1 EnMin= -26693.9940527223     IErMin= 1 ErrMin= 2.49D-01
 ErrMax= 2.49D-01  0.00D+00 EMaxC= 1.00D-01 BMatC= 3.35D+02 BMatP= 3.35D+02
 IDIUse=3 WtCom= 0.00D+00 WtEn= 1.00D+00
 Coeff-Com:  0.100D+01
 Coeff-En:   0.100D+01
 Coeff:      0.100D+01
 Gap=     0.744 Goal=   None    Shift=    0.000
 GapD=    0.744 DampG=2.000 DampE=0.125 DampFc=0.2500 IDamp=-1.
 Damping current iteration by 2.50D-01
 RMSDP=1.95D-02 MaxDP=5.94D+00              OVMax= 7.29D-01

 Cycle   2  Pass 1  IDiag  1:
 RMSU=  4.72D-03    CP:  1.10D+00
 E= -26695.6918768500     Delta-E=       -1.697824127754 Rises=F Damp=T
 DIIS: error= 1.86D-01 at cycle   2 NSaved=   2.
 NSaved= 2 IEnMin= 2 EnMin= -26695.6918768500     IErMin= 2 ErrMin= 1.86D-01
 ErrMax= 1.86D-01  0.00D+00 EMaxC= 1.00D-01 BMatC= 1.61D+02 BMatP= 3.35D+02
 IDIUse=3 WtCom= 0.00D+00 WtEn= 1.00D+00
 Coeff-Com: -0.195D+01 0.295D+01
 Coeff-En:   0.138D+00 0.862D+00
 Coeff:      0.138D+00 0.862D+00
 Gap=    -0.006 Goal=   None    Shift=    0.000
 RMSDP=5.48D-03 MaxDP=1.33D+00 DE=-1.70D+00 OVMax= 7.46D-01

 Cycle   3  Pass 1  IDiag  1:
 RMSU=  3.86D-03    CP:  8.91D-01  3.93D-01
 E= -26697.8665616758     Delta-E=       -2.174684825768 Rises=F Damp=F
 DIIS: error= 6.03D-02 at cycle   3 NSaved=   3.
 NSaved= 3 IEnMin= 3 EnMin= -26697.8665616758     IErMin= 3 ErrMin= 6.03D-02
 ErrMax= 6.03D-02  0.00D+00 EMaxC= 1.00D-01 BMatC= 1.33D+01 BMatP= 1.61D+02
 IDIUse=3 WtCom= 3.97D-01 WtEn= 6.03D-01
 EnCoef did   100 forward-backward iterations
 Coeff-Com:  0.918D+00-0.109D+01 0.118D+01
 Coeff-En:   0.265D+00 0.388D-02 0.731D+00
 Coeff:      0.524D+00-0.432D+00 0.908D+00
 Gap=     0.072 Goal=   None    Shift=    0.000
 RMSDP=1.02D-02 MaxDP=2.98D+00 DE=-2.17D+00 OVMax= 8.02D-01

 Cycle   4  Pass 1  IDiag  1:
 RMSU=  7.61D-03    CP:  1.24D+00  9.69D-01 -1.39D-01
 E= -26692.8098429597     Delta-E=        5.056718716150 Rises=F Damp=F
 DIIS: error= 4.75D-02 at cycle   4 NSaved=   4.
 NSaved= 4 IEnMin= 3 EnMin= -26697.8665616758     IErMin= 4 ErrMin= 4.75D-02
 ErrMax= 4.75D-02  0.00D+00 EMaxC= 1.00D-01 BMatC= 7.69D+00 BMatP= 1.33D+01
 IDIUse=3 WtCom= 5.25D-01 WtEn= 4.75D-01
 EnCoef did     8 forward-backward iterations
 Coeff-Com:  0.461D+00-0.558D+00 0.670D+00 0.426D+00
 Coeff-En:   0.178D+00 0.000D+00 0.675D+00 0.147D+00
 Coeff:      0.327D+00-0.293D+00 0.672D+00 0.294D+00
 Gap=    -0.015 Goal=   None    Shift=    0.000
 RMSDP=8.98D-03 MaxDP=2.94D+00 DE= 5.06D+00 OVMax= 8.10D-01

 Cycle   5  Pass 1  IDiag  1:
 RMSU=  1.38D-03    CP:  9.22D-01  2.41D-01  4.91D-01  1.16D-01
 E= -26699.6492892114     Delta-E=       -6.839446251739 Rises=F Damp=F
 DIIS: error= 1.40D-02 at cycle   5 NSaved=   5.
 NSaved= 5 IEnMin= 5 EnMin= -26699.6492892114     IErMin= 5 ErrMin= 1.40D-02
 ErrMax= 1.40D-02  0.00D+00 EMaxC= 1.00D-01 BMatC= 5.94D-01 BMatP= 7.69D+00
 IDIUse=3 WtCom= 8.60D-01 WtEn= 1.40D-01
 Coeff-Com: -0.724D-01 0.115D+00 0.144D+00 0.117D+00 0.697D+00
 Coeff-En:   0.000D+00 0.000D+00 0.195D-01 0.000D+00 0.981D+00
 Coeff:     -0.623D-01 0.986D-01 0.127D+00 0.101D+00 0.737D+00
 Gap=     0.141 Goal=   None    Shift=    0.000
 RMSDP=1.70D-03 MaxDP=1.48D-01 DE=-6.84D+00 OVMax= 1.54D-01

 Cycle   6  Pass 1  IDiag  1:
 RMSU=  1.13D-03    CP:  9.54D-01  2.83D-01  5.97D-01  1.16D-01  1.93D-01
 E= -26699.7015934869     Delta-E=       -0.052304275465 Rises=F Damp=F
 DIIS: error= 4.59D-03 at cycle   6 NSaved=   6.
 NSaved= 6 IEnMin= 6 EnMin= -26699.7015934869     IErMin= 6 ErrMin= 4.59D-03
 ErrMax= 4.59D-03  0.00D+00 EMaxC= 1.00D-01 BMatC= 2.73D-01 BMatP= 5.94D-01
 IDIUse=3 WtCom= 9.54D-01 WtEn= 4.59D-02
 Coeff-Com: -0.845D-01 0.120D+00 0.314D-01 0.325D-01 0.498D+00 0.403D+00
 Coeff-En:   0.000D+00 0.000D+00 0.000D+00 0.000D+00 0.463D+00 0.537D+00
 Coeff:     -0.806D-01 0.114D+00 0.300D-01 0.310D-01 0.496D+00 0.409D+00
 Gap=     0.110 Goal=   None    Shift=    0.000
 RMSDP=1.04D-03 MaxDP=9.81D-02 DE=-5.23D-02 OVMax= 1.23D-01

 Cycle   7  Pass 1  IDiag  1:
 RMSU=  5.63D-04    CP:  9.31D-01  2.71D-01  5.83D-01  1.26D-01  5.52D-01
                    CP:  4.35D-01
 E= -26699.9263529604     Delta-E=       -0.224759473582 Rises=F Damp=F
 DIIS: error= 2.41D-03 at cycle   7 NSaved=   7.
 NSaved= 7 IEnMin= 7 EnMin= -26699.9263529604     IErMin= 7 ErrMin= 2.41D-03
 ErrMax= 2.41D-03  0.00D+00 EMaxC= 1.00D-01 BMatC= 4.53D-02 BMatP= 2.73D-01
 IDIUse=3 WtCom= 9.76D-01 WtEn= 2.41D-02
 Coeff-Com: -0.626D-01 0.864D-01-0.136D-02 0.925D-02 0.271D+00 0.305D+00
 Coeff-Com:  0.392D+00
 Coeff-En:   0.000D+00 0.000D+00 0.000D+00 0.000D+00 0.000D+00 0.187D+00
 Coeff-En:   0.813D+00
 Coeff:     -0.611D-01 0.843D-01-0.133D-02 0.903D-02 0.264D+00 0.303D+00
 Coeff:      0.402D+00
 Gap=     0.088 Goal=   None    Shift=    0.000
 RMSDP=4.68D-04 MaxDP=9.77D-02 DE=-2.25D-01 OVMax= 9.85D-02

 Cycle   8  Pass 1  IDiag  1:
 RMSU=  2.52D-04    CP:  9.43D-01  2.93D-01  5.72D-01  1.40D-01  5.97D-01
                    CP:  5.24D-01  4.55D-01
 E= -26699.9728839531     Delta-E=       -0.046530992666 Rises=F Damp=F
 DIIS: error= 8.26D-04 at cycle   8 NSaved=   8.
 NSaved= 8 IEnMin= 8 EnMin= -26699.9728839531     IErMin= 8 ErrMin= 8.26D-04
 ErrMax= 8.26D-04  0.00D+00 EMaxC= 1.00D-01 BMatC= 5.24D-03 BMatP= 4.53D-02
 IDIUse=3 WtCom= 9.92D-01 WtEn= 8.26D-03
 Coeff-Com: -0.147D-01 0.198D-01-0.336D-02 0.420D-02 0.750D-01 0.114D+00
 Coeff-Com:  0.257D+00 0.548D+00
 Coeff-En:   0.000D+00 0.000D+00 0.000D+00 0.000D+00 0.000D+00 0.000D+00
 Coeff-En:   0.102D+00 0.898D+00
 Coeff:     -0.146D-01 0.197D-01-0.334D-02 0.417D-02 0.744D-01 0.113D+00
 Coeff:      0.255D+00 0.551D+00
 Gap=     0.090 Goal=   None    Shift=    0.000
 RMSDP=1.67D-04 MaxDP=2.21D-02 DE=-4.65D-02 OVMax= 4.37D-02

 Error on total polarization charges =  0.02536
 SCF Done:  E(RPBE-PBE) =  -26699.9728840     A.U. after    8 cycles
            NFock=  8  Conv=0.17D-03     -V/T= 2.0155
 KE= 2.629284570069D+04 PE=-8.887542350468D+04 EE= 2.302048785239D+04
 Leave Link  502 at Thu Dec 12 19:12:33 2019, MaxMem=  4026531840 cpu:     46553.9
 (Enter /scr/programs/g09/l801.exe)
 Range of M.O.s used for correlation:     1  1769
 NBasis=  1769 NAE=   244 NBE=   244 NFC=     0 NFV=     0
 NROrb=   1769 NOA=   244 NOB=   244 NVA=  1525 NVB=  1525

 **** Warning!!: The largest alpha MO coefficient is  0.63370741D+02


 **** Warning!!: The smallest alpha delta epsilon is  0.90166575D-01

 Leave Link  801 at Thu Dec 12 19:12:33 2019, MaxMem=  4026531840 cpu:         3.4
 (Enter /scr/programs/g09/l1002.exe)
 Minotr:  Closed shell wavefunction.
 NEqPCM:  Using equilibrium solvation (IEInf=0, Eps=   8.9300, EpsInf=   2.0283)
          Direct CPHF calculation.
          Differentiating once with respect to magnetic field using GIAOs.
          Electric field/nuclear overlap derivatives assumed to be zero.
          Requested convergence is 1.0D-08 RMS, and 1.0D-07 maximum.
          Secondary convergence is 1.0D-12 RMS, and 1.0D-12 maximum.
          NewPWx=T KeepS1=F KeepF1=F KeepIn=T MapXYZ=F SortEE=F KeepMc=T.
          MDV=    4026529379 using IRadAn=       2.
 Defaulting to unpruned grid for atomic number  78.
 Defaulting to unpruned grid for atomic number  50.
 Generate precomputed XC quadrature information.
          Solving linear equations simultaneously, MaxMat=      72.
 FoFJK:  IHMeth= 1 ICntrl=    6127 DoSepK=F KAlg= 0 I1Cent=   0 FoldK=F
 IRaf=         1 NMat=   1 IRICut=       1 DoRegI=T DoRafI=F ISym2E= 0.
 Defaulting to unpruned grid for atomic number  78.
 Defaulting to unpruned grid for atomic number  78.
 Defaulting to unpruned grid for atomic number  78.
 Defaulting to unpruned grid for atomic number  78.
 Defaulting to unpruned grid for atomic number  78.
 Defaulting to unpruned grid for atomic number  78.
 Defaulting to unpruned grid for atomic number  78.
 Defaulting to unpruned grid for atomic number  78.
 Defaulting to unpruned grid for atomic number  78.
 Defaulting to unpruned grid for atomic number  78.
 Defaulting to unpruned grid for atomic number  78.
 Defaulting to unpruned grid for atomic number  78.
 Defaulting to unpruned grid for atomic number  78.
 Defaulting to unpruned grid for atomic number  78.
 Defaulting to unpruned grid for atomic number  78.
 Defaulting to unpruned grid for atomic number  78.
 Defaulting to unpruned grid for atomic number  78.
 Defaulting to unpruned grid for atomic number  78.
 Defaulting to unpruned grid for atomic number  78.
 Defaulting to unpruned grid for atomic number  78.
 Defaulting to unpruned grid for atomic number  78.
 Defaulting to unpruned grid for atomic number  78.
 Defaulting to unpruned grid for atomic number  78.
 Defaulting to unpruned grid for atomic number  78.
          There are     3 degrees of freedom in the 1st order CPHF.  IDoFFX=0 NUNeed=     3.
      3 vectors produced by pass  0 Test12= 1.24D-11 3.33D-08 XBig12= 3.43D+03 2.71D+00.
 AX will form     3 AO Fock derivatives at one time.
 InvSVY:  IOpt=1 It=  1 EMax= 0.00D+00
 Solved reduced A of dimension     3 with     3 vectors.
 Calculating GIAO nuclear magnetic shielding tensors.
 SCF GIAO Magnetic shielding tensor (ppm):
      1  Pt   Isotropic =  2965.1735   Anisotropy =  1817.2810
   XX=  3620.8089   YX=   173.5381   ZX=  -126.0835
   XY=  -115.1334   YY=  4016.8143   ZY=  -608.6754
   XZ=  -337.3375   YZ=  -703.9697   ZZ=  1257.8973
   Eigenvalues:  1090.6484  3628.1780  4176.6942
      2  P    Isotropic =   257.9537   Anisotropy =    61.7077
   XX=   273.8272   YX=   -27.5323   ZX=    -3.4586
   XY=   -47.7136   YY=   232.4975   ZY=    14.4495
   XZ=   -19.7907   YZ=   -15.7850   ZZ=   267.5365
   Eigenvalues:   209.4974   265.2716   299.0922
      3  P    Isotropic =   242.2746   Anisotropy =   112.1548
   XX=   202.5450   YX=    74.7494   ZX=    -6.2014
   XY=    48.6834   YY=   278.9947   ZY=   -17.0063
   XZ=   -18.1206   YZ=    -6.6056   ZZ=   245.2842
   Eigenvalues:   167.8597   241.9197   317.0445
      4  C    Isotropic =    47.1733   Anisotropy =   240.9026
   XX=    97.3847   YX=    85.3847   ZX=    -0.7701
   XY=   130.8240   YY=    95.5563   ZY=    58.9936
   XZ=   -21.2024   YZ=    43.5126   ZZ=   -51.4209
   Eigenvalues:   -81.9219    15.6668   207.7751
      5  C    Isotropic =    23.9845   Anisotropy =   167.7828
   XX=    41.2142   YX=    68.7372   ZX=    51.3838
   XY=    61.7487   YY=    87.8385   ZY=    -5.2964
   XZ=    45.9467   YZ=   -16.7956   ZZ=   -57.0991
   Eigenvalues:   -85.2126    21.3265   135.8397
      6  C    Isotropic =    30.5502   Anisotropy =   180.5241
   XX=    24.0581   YX=   102.6708   ZX=    15.4036
   XY=   127.3492   YY=    45.0157   ZY=     1.1310
   XZ=     7.5870   YZ=     6.5797   ZZ=    22.5768
   Eigenvalues:   -81.2851    22.0361   150.8996
      7  C    Isotropic =    30.8369   Anisotropy =   175.1519
   XX=    10.6516   YX=   109.0204   ZX=     7.6812
   XY=   118.4266   YY=    51.9616   ZY=     5.6959
   XZ=    10.2083   YZ=     3.2505   ZZ=    29.8974
   Eigenvalues:   -84.4179    29.3237   147.6048
      8  H    Isotropic =    24.5221   Anisotropy =    11.2779
   XX=    26.2950   YX=    -4.8079   ZX=     6.2476
   XY=    -0.9872   YY=    25.1226   ZY=    -3.7059
   XZ=     3.4929   YZ=    -2.5983   ZZ=    22.1486
   Eigenvalues:    18.7078    22.8177    32.0406
      9  C    Isotropic =    51.2402   Anisotropy =   192.2605
   XX=    81.0492   YX=    77.6939   ZX=    39.7375
   XY=    77.3949   YY=   116.8272   ZY=    -9.7247
   XZ=    39.2408   YZ=   -17.7596   ZZ=   -44.1557
   Eigenvalues:   -63.6926    37.9994   179.4139
     10  H    Isotropic =    23.1015   Anisotropy =    14.1252
   XX=    19.8861   YX=     0.1079   ZX=     5.0880
   XY=     0.8579   YY=    20.2710   ZY=    -4.2601
   XZ=     6.7961   YZ=    -1.5017   ZZ=    29.1473
   Eigenvalues:    16.2057    20.5805    32.5183
     11  C    Isotropic =    37.2069   Anisotropy =   219.7419
   XX=    75.3966   YX=    89.0239   ZX=   -23.1417
   XY=   105.6931   YY=    91.4010   ZY=    71.7917
   XZ=   -28.8708   YZ=    41.6705   ZZ=   -55.1770
   Eigenvalues:   -97.2209    25.1400   183.7014
     12  H    Isotropic =    20.8783   Anisotropy =     9.8665
   XX=    19.2194   YX=    -6.1026   ZX=     1.6153
   XY=    -5.0104   YY=    16.7607   ZY=    -1.7689
   XZ=     0.6194   YZ=    -0.9722   ZZ=    26.6547
   Eigenvalues:    12.2895    22.8894    27.4560
     13  H    Isotropic =    22.8860   Anisotropy =     9.0225
   XX=    22.2762   YX=    -3.5237   ZX=     3.1911
   XY=    -3.3805   YY=    21.6732   ZY=    -2.5076
   XZ=     2.9739   YZ=    -2.0190   ZZ=    24.7086
   Eigenvalues:    18.4683    21.2887    28.9010
     14  H    Isotropic =    21.0550   Anisotropy =     7.7645
   XX=    20.9441   YX=    -6.4755   ZX=    -0.5189
   XY=    -6.3066   YY=    18.2030   ZY=    -0.2907
   XZ=    -0.7879   YZ=     0.3191   ZZ=    24.0179
   Eigenvalues:    13.0227    23.9110    26.2314
     15  C    Isotropic =    52.9080   Anisotropy =   244.7296
   XX=   184.4860   YX=   -38.9380   ZX=   -94.0072
   XY=    21.0920   YY=   -32.5819   ZY=   -55.2285
   XZ=   -67.7417   YZ=   -35.8894   ZZ=     6.8201
   Eigenvalues:   -74.5424    17.2055   216.0611
     16  C    Isotropic =    44.3312   Anisotropy =   199.1629
   XX=   147.5914   YX=     2.5330   ZX=   -70.3781
   XY=    21.0056   YY=   -58.2496   ZY=    30.7431
   XZ=   -54.9791   YZ=    37.1986   ZZ=    43.6517
   Eigenvalues:   -72.9698    28.8569   177.1064
     17  C    Isotropic =    44.8505   Anisotropy =   195.3361
   XX=   143.2410   YX=     7.9634   ZX=   -83.9536
   XY=     3.1910   YY=    20.1999   ZY=    21.3131
   XZ=   -76.8134   YZ=    31.4942   ZZ=   -28.8892
   Eigenvalues:   -68.5728    28.0498   175.0746
     18  C    Isotropic =    40.4313   Anisotropy =   189.3117
   XX=   125.7736   YX=     5.4177   ZX=   -98.1010
   XY=     0.1082   YY=    31.3939   ZY=    17.9924
   XZ=   -83.1609   YZ=    22.8509   ZZ=   -35.8736
   Eigenvalues:   -79.9967    34.6514   166.6391
     19  H    Isotropic =    22.2752   Anisotropy =    10.5141
   XX=    20.3902   YX=    -0.5899   ZX=     1.9365
   XY=     0.3112   YY=    19.9929   ZY=     5.8598
   XZ=     0.7093   YZ=     4.0960   ZZ=    26.4426
   Eigenvalues:    17.1078    20.4333    29.2846
     20  C    Isotropic =    29.5747   Anisotropy =   160.5577
   XX=   118.5054   YX=    -9.8197   ZX=   -37.7549
   XY=    -2.9485   YY=   -72.3074   ZY=    35.2117
   XZ=   -40.2039   YZ=    29.0325   ZZ=    42.5260
   Eigenvalues:   -80.7534    32.8643   136.6131
     21  H    Isotropic =    24.2448   Anisotropy =    12.9769
   XX=    21.7362   YX=     1.2355   ZX=     4.6970
   XY=     1.2422   YY=    30.7104   ZY=     5.6167
   XZ=     1.9816   YZ=     3.3943   ZZ=    20.2878
   Eigenvalues:    16.9646    22.8737    32.8961
     22  C    Isotropic =    31.9245   Anisotropy =   203.4461
   XX=   134.1206   YX=   -42.0504   ZX=   -79.2382
   XY=   -25.5312   YY=   -41.3742   ZY=   -53.8821
   XZ=   -68.0015   YZ=   -53.7585   ZZ=     3.0270
   Eigenvalues:   -99.0372    27.2554   167.5552
     23  H    Isotropic =    22.0171   Anisotropy =     8.6126
   XX=    16.3502   YX=     0.2557   ZX=     1.7678
   XY=     0.3333   YY=    26.2304   ZY=     2.9039
   XZ=    -0.0204   YZ=     2.1184   ZZ=    23.4708
   Eigenvalues:    16.2446    22.0480    27.7589
     24  H    Isotropic =    21.5794   Anisotropy =     9.5377
   XX=    15.3287   YX=     0.4021   ZX=     5.0929
   XY=    -1.4598   YY=    24.9844   ZY=     3.2132
   XZ=     3.9099   YZ=     1.8915   ZZ=    24.4250
   Eigenvalues:    13.2898    23.5105    27.9378
     25  H    Isotropic =    21.2322   Anisotropy =     7.5428
   XX=    14.0756   YX=    -0.9333   ZX=     4.0998
   XY=    -2.2912   YY=    25.5271   ZY=     0.2928
   XZ=     2.6741   YZ=    -0.9935   ZZ=    24.0938
   Eigenvalues:    12.8737    24.5622    26.2607
     26  C    Isotropic =    18.5186   Anisotropy =   197.1371
   XX=   -44.3335   YX=   -61.2808   ZX=    33.6269
   XY=   -84.8599   YY=   121.2201   ZY=    -6.2782
   XZ=    53.8381   YZ=    10.8732   ZZ=   -21.3307
   Eigenvalues:   -95.6263     1.2388   149.9433
     27  C    Isotropic =   -13.4967   Anisotropy =    92.8861
   XX=    31.6251   YX=   -33.6406   ZX=    40.7626
   XY=    11.5805   YY=    36.0744   ZY=    49.8794
   XZ=    15.1651   YZ=   -60.6093   ZZ=  -108.1896
   Eigenvalues:  -113.6432    24.7257    48.4274
     28  C    Isotropic =    52.5528   Anisotropy =   189.8142
   XX=    25.1433   YX=  -113.2020   ZX=   -47.6090
   XY=   -81.5870   YY=   111.2142   ZY=   -44.6966
   XZ=   -11.3360   YZ=   -54.3519   ZZ=    21.3009
   Eigenvalues:   -68.8713    47.4340   179.0955
     29  C    Isotropic =    67.3960   Anisotropy =   215.6098
   XX=    43.4942   YX=   -74.5458   ZX=   -22.4946
   XY=   -66.4949   YY=   179.5293   ZY=   -22.8953
   XZ=   -56.6512   YZ=   -51.9781   ZZ=   -20.8355
   Eigenvalues:   -58.4161    49.4682   211.1359
     30  H    Isotropic =    26.1059   Anisotropy =    10.4886
   XX=    29.9050   YX=     6.9805   ZX=     0.3489
   XY=    -1.4452   YY=    29.3417   ZY=    -1.1850
   XZ=    -0.0620   YZ=    -7.7900   ZZ=    19.0709
   Eigenvalues:    17.2856    27.9337    33.0983
     31  C    Isotropic =   135.0923   Anisotropy =   312.5715
   XX=   104.1805   YX=   -79.5149   ZX=    20.6976
   XY=  -119.3879   YY=   296.5286   ZY=   -30.7256
   XZ=    13.0723   YZ=   -42.3097   ZZ=     4.5679
   Eigenvalues:    -0.2296    62.0333   343.4733
     32  H    Isotropic =    24.3535   Anisotropy =    11.9785
   XX=    27.8223   YX=     0.2331   ZX=    -6.6509
   XY=     2.3918   YY=    18.4047   ZY=    -0.8153
   XZ=    -1.3827   YZ=    -7.0886   ZZ=    26.8336
   Eigenvalues:    16.8346    23.8868    32.3392
     33  C    Isotropic =    69.0594   Anisotropy =    78.8672
   XX=    40.0071   YX=   -90.1031   ZX=    30.0077
   XY=    14.8580   YY=    96.7657   ZY=   -31.8863
   XZ=   -34.9042   YZ=    -9.6301   ZZ=    70.4054
   Eigenvalues:    18.5680    66.9726   121.6375
     34  H    Isotropic =    27.4040   Anisotropy =     4.8294
   XX=    28.0778   YX=     2.0197   ZX=    -2.3001
   XY=    -1.9371   YY=    27.6268   ZY=    -1.2497
   XZ=    -2.4114   YZ=    -3.4910   ZZ=    26.5074
   Eigenvalues:    23.7819    27.8065    30.6236
     35  H    Isotropic =    31.7151   Anisotropy =    15.3818
   XX=    31.6512   YX=    -2.6785   ZX=    -1.7266
   XY=    -5.6071   YY=    38.5377   ZY=    -1.8962
   XZ=     2.4956   YZ=    -8.7615   ZZ=    24.9564
   Eigenvalues:    22.9884    30.1873    41.9696
     36  H    Isotropic =    32.9592   Anisotropy =    19.8335
   XX=    28.7543   YX=    -2.8967   ZX=     0.6143
   XY=   -10.6133   YY=    42.5393   ZY=    -1.0521
   XZ=     3.5960   YZ=    -5.9835   ZZ=    27.5839
   Eigenvalues:    25.6477    27.0483    46.1815
     37  C    Isotropic =    51.0810   Anisotropy =   267.4954
   XX=    19.6400   YX=   177.1301   ZX=   -64.6319
   XY=    70.3662   YY=    86.6898   ZY=   -57.0231
   XZ=   -64.7913   YZ=   -79.5311   ZZ=    46.9131
   Eigenvalues:   -76.1452    -0.0231   229.4112
     38  C    Isotropic =    21.7993   Anisotropy =   158.7691
   XX=    18.0289   YX=    58.0620   ZX=  -113.5097
   XY=    45.5463   YY=    63.4552   ZY=   -31.8627
   XZ=   -51.5352   YZ=    -3.9873   ZZ=   -16.0862
   Eigenvalues:   -85.9393    23.6919   127.6454
     39  C    Isotropic =    92.8152   Anisotropy =   286.9756
   XX=   136.0425   YX=   116.3180   ZX=   -86.9790
   XY=    91.7390   YY=   106.4079   ZY=   -86.0193
   XZ=   -70.5817   YZ=   -97.1102   ZZ=    35.9952
   Eigenvalues:   -27.3717    21.6851   284.1323
     40  C    Isotropic =    26.3576   Anisotropy =   130.3429
   XX=    63.0487   YX=    22.0207   ZX=   -36.2547
   XY=    32.3168   YY=    48.5759   ZY=   -57.8271
   XZ=   -21.1887   YZ=   -71.9008   ZZ=   -32.5517
   Eigenvalues:   -69.6487    35.4688   113.2529
     41  H    Isotropic =    22.9677   Anisotropy =    15.2720
   XX=    24.1228   YX=    -3.9497   ZX=    -2.2338
   XY=    -8.6189   YY=    25.8096   ZY=     5.9327
   XZ=     0.0272   YZ=     5.4350   ZZ=    18.9708
   Eigenvalues:    15.0550    20.6990    33.1491
     42  C    Isotropic =    85.8011   Anisotropy =   200.1768
   XX=    70.5457   YX=    62.0388   ZX=   -82.8553
   XY=    76.3661   YY=   111.3392   ZY=   -38.8886
   XZ=   -81.2018   YZ=   -57.4647   ZZ=    75.5185
   Eigenvalues:   -12.1824    50.3335   219.2523
     43  H    Isotropic =    22.5694   Anisotropy =    11.9977
   XX=    27.6747   YX=    -3.2619   ZX=     1.1136
   XY=    -2.7850   YY=    24.8375   ZY=    -2.3396
   XZ=     7.0523   YZ=     0.9324   ZZ=    15.1960
   Eigenvalues:    13.9753    23.1650    30.5678
     44  C    Isotropic =    15.5012   Anisotropy =    80.7641
   XX=   -16.6683   YX=    27.4731   ZX=    16.8991
   XY=    38.2311   YY=    35.4600   ZY=   -24.6125
   XZ=    40.3625   YZ=   -49.6007   ZZ=    27.7120
   Eigenvalues:   -54.9261    32.0858    69.3439
     45  H    Isotropic =    24.1135   Anisotropy =     6.6650
   XX=    24.7023   YX=    -2.7864   ZX=     0.4183
   XY=    -3.9711   YY=    25.5449   ZY=     1.9793
   XZ=     1.8454   YZ=     1.1148   ZZ=    22.0933
   Eigenvalues:    20.0153    23.7684    28.5568
     46  H    Isotropic =    28.4072   Anisotropy =     8.8590
   XX=    30.2250   YX=     3.1855   ZX=    -6.4872
   XY=     0.8535   YY=    31.8161   ZY=    -2.0057
   XZ=    -1.2851   YZ=    -0.8343   ZZ=    23.1803
   Eigenvalues:    21.4343    29.4740    34.3132
     47  H    Isotropic =    27.8933   Anisotropy =     7.3479
   XX=    28.7333   YX=     4.6585   ZX=    -3.4461
   XY=     1.6113   YY=    28.5649   ZY=    -0.8062
   XZ=    -0.8616   YZ=    -2.0343   ZZ=    26.3816
   Eigenvalues:    24.9887    25.8992    32.7919
     48  C    Isotropic =    11.0862   Anisotropy =   204.7221
   XX=   -11.5828   YX=   -89.3449   ZX=   -52.4531
   XY=   -57.6201   YY=   112.2132   ZY=   -21.5534
   XZ=   -86.9643   YZ=   -10.3833   ZZ=   -67.3719
   Eigenvalues:  -127.8065    13.4975   147.5676
     49  C    Isotropic =   -12.5682   Anisotropy =   106.1496
   XX=    10.2153   YX=    15.2144   ZX=   -26.0485
   XY=   -24.7357   YY=    42.5059   ZY=    53.9405
   XZ=    24.2133   YZ=    40.9937   ZZ=   -90.4258
   Eigenvalues:  -105.6380     9.7353    58.1982
     50  C    Isotropic =    31.0951   Anisotropy =   173.1533
   XX=   -33.4879   YX=   -72.6994   ZX=     6.4145
   XY=   -93.8584   YY=    98.1237   ZY=    46.5385
   XZ=     9.5206   YZ=    28.9890   ZZ=    28.6494
   Eigenvalues:   -79.2138    25.9684   146.5306
     51  C    Isotropic =    41.5561   Anisotropy =   206.6657
   XX=     3.9937   YX=   -93.1501   ZX=    10.8013
   XY=  -136.1337   YY=    98.3208   ZY=    41.3737
   XZ=    23.8097   YZ=    42.5875   ZZ=    22.3539
   Eigenvalues:   -86.2277    31.5629   179.3333
     52  H    Isotropic =    23.9128   Anisotropy =    14.9875
   XX=    29.7537   YX=     4.1723   ZX=     5.9699
   XY=     0.3869   YY=    20.2380   ZY=    -0.3964
   XZ=     7.7475   YZ=    -0.7382   ZZ=    21.7468
   Eigenvalues:    16.9572    20.8768    33.9045
     53  C    Isotropic =    82.2655   Anisotropy =   242.4304
   XX=    80.1757   YX=   -82.7342   ZX=    -2.1056
   XY=   -77.4598   YY=   199.7765   ZY=    37.1813
   XZ=     7.0565   YZ=    39.0810   ZZ=   -33.1559
   Eigenvalues:   -41.5849    44.4956   243.8857
     54  H    Isotropic =    22.5927   Anisotropy =    14.2746
   XX=    17.6087   YX=     2.6602   ZX=     6.2177
   XY=    -0.6586   YY=    22.1265   ZY=     4.1702
   XZ=     6.6445   YZ=     1.8800   ZZ=    28.0430
   Eigenvalues:    14.5221    21.1469    32.1091
     55  C    Isotropic =    50.7341   Anisotropy =   195.5431
   XX=    25.3274   YX=   -61.6491   ZX=   -37.4023
   XY=  -123.5948   YY=   125.4669   ZY=   -45.2943
   XZ=   -50.2187   YZ=    12.4721   ZZ=     1.4080
   Eigenvalues:   -62.9607    34.0669   181.0961
     56  H    Isotropic =    21.7695   Anisotropy =     9.5258
   XX=    22.3723   YX=     5.9978   ZX=     3.1905
   XY=     2.1755   YY=    16.6599   ZY=    -0.4662
   XZ=     2.9636   YZ=    -1.3167   ZZ=    26.2762
   Eigenvalues:    14.1101    23.0784    28.1200
     57  H    Isotropic =    24.8988   Anisotropy =     5.8813
   XX=    25.4020   YX=     1.7408   ZX=     3.1416
   XY=    -0.0963   YY=    25.7381   ZY=     2.5829
   XZ=     3.3710   YZ=     0.8425   ZZ=    23.5561
   Eigenvalues:    20.9225    24.9542    28.8196
     58  H    Isotropic =    23.7597   Anisotropy =     3.9730
   XX=    24.0581   YX=     3.4835   ZX=    -0.2887
   XY=     2.1186   YY=    22.3635   ZY=     0.0505
   XZ=    -0.7401   YZ=    -0.8406   ZZ=    24.8575
   Eigenvalues:    20.2844    24.5864    26.4084
     59  C    Isotropic =    34.7203   Anisotropy =   180.8395
   XX=   133.2571   YX=   -50.4500   ZX=   -11.2878
   XY=   -51.8932   YY=    34.8887   ZY=    12.4071
   XZ=    36.5771   YZ=    10.8008   ZZ=   -63.9848
   Eigenvalues:   -67.2514    16.1324   155.2800
     60  C    Isotropic =    20.4635   Anisotropy =   157.2575
   XX=   113.2989   YX=   -28.5677   ZX=     4.0725
   XY=   -47.9801   YY=   -25.2483   ZY=   -49.4127
   XZ=     4.0446   YZ=   -55.7427   ZZ=   -26.6599
   Eigenvalues:   -81.6222    17.7110   125.3019
     61  C    Isotropic =    38.3606   Anisotropy =   169.1513
   XX=   125.7176   YX=   -51.5494   ZX=    10.2654
   XY=   -84.6214   YY=   -38.2934   ZY=    12.0066
   XZ=    22.3934   YZ=    19.2890   ZZ=    27.6575
   Eigenvalues:   -67.2224    31.1760   151.1281
     62  C    Isotropic =    40.1557   Anisotropy =   184.4965
   XX=   138.8281   YX=   -56.1473   ZX=    10.2933
   XY=   -84.5832   YY=   -47.9875   ZY=    19.8277
   XZ=    20.8919   YZ=     9.1138   ZZ=    29.6265
   Eigenvalues:   -74.8749    32.1886   163.1533
     63  H    Isotropic =    23.6796   Anisotropy =    10.3688
   XX=    22.0401   YX=     0.6276   ZX=    -1.5878
   XY=     4.0899   YY=    24.2561   ZY=    -5.4702
   XZ=    -3.5142   YZ=    -3.8802   ZZ=    24.7425
   Eigenvalues:    19.8156    20.6310    30.5921
     64  C    Isotropic =    63.8655   Anisotropy =   204.8793
   XX=   175.0024   YX=   -56.9459   ZX=    10.6785
   XY=   -68.7198   YY=    24.2961   ZY=   -48.0814
   XZ=     2.8916   YZ=   -50.1464   ZZ=    -7.7020
   Eigenvalues:   -48.4034    39.5483   200.4517
     65  H    Isotropic =    21.9574   Anisotropy =    13.2158
   XX=    17.9804   YX=    -0.6802   ZX=    -0.8824
   XY=    -1.3032   YY=    17.2186   ZY=    -0.5523
   XZ=    -1.1944   YZ=    -0.3559   ZZ=    30.6732
   Eigenvalues:    16.4712    18.6331    30.7679
     66  C    Isotropic =    54.0590   Anisotropy =   217.1626
   XX=   174.9428   YX=   -54.1789   ZX=     5.6535
   XY=   -68.1937   YY=    38.2510   ZY=    39.7089
   XZ=    37.5786   YZ=    11.2006   ZZ=   -51.0167
   Eigenvalues:   -64.0553    27.3984   198.8341
     67  H    Isotropic =    22.3672   Anisotropy =     7.2166
   XX=    18.1853   YX=     2.2319   ZX=    -1.3062
   XY=     2.2123   YY=    21.9769   ZY=    -0.3232
   XZ=    -1.5288   YZ=     0.4867   ZZ=    26.9393
   Eigenvalues:    16.9841    22.9393    27.1783
     68  H    Isotropic =    23.8105   Anisotropy =     6.2743
   XX=    22.7001   YX=     0.8420   ZX=    -1.0577
   XY=     0.0178   YY=    22.3928   ZY=    -2.8044
   XZ=    -1.2986   YZ=    -2.5722   ZZ=    26.3385
   Eigenvalues:    21.0159    22.4222    27.9933
     69  H    Isotropic =    23.0820   Anisotropy =     3.9243
   XX=    20.5238   YX=     2.0652   ZX=    -1.0329
   XY=     1.7820   YY=    24.9768   ZY=     0.3085
   XZ=    -0.3512   YZ=     0.4233   ZZ=    23.7455
   Eigenvalues:    19.6604    23.8875    25.6982
     70  Sn   Isotropic =  1957.6963   Anisotropy =   747.8898
   XX=  2435.0292   YX=    87.0150   ZX=   -94.2028
   XY=    94.7262   YY=  1826.3236   ZY=   -84.6655
   XZ=   -54.3661   YZ=   -32.1700   ZZ=  1611.7362
   Eigenvalues:  1593.7751  1823.0244  2456.2896
     71  Cl   Isotropic =   992.4385   Anisotropy =   704.3033
   XX=   679.3588   YX=   -82.0282   ZX=   117.4774
   XY=    74.0206   YY=   863.7311   ZY=    83.8943
   XZ=    -2.2972   YZ=   153.8829   ZZ=  1434.2257
   Eigenvalues:   674.0070   841.3345  1461.9741
     72  Cl   Isotropic =   859.6749   Anisotropy =   224.2464
   XX=   800.2581   YX=  -121.6130   ZX=   -34.9649
   XY=  -111.5915   YY=   844.4511   ZY=    73.8394
   XZ=   -32.1357   YZ=    55.1067   ZZ=   934.3155
   Eigenvalues:   702.5671   867.2851  1009.1725
     73  C    Isotropic =   142.9342   Anisotropy =    55.1676
   XX=   151.5244   YX=    24.1761   ZX=   -12.9213
   XY=    26.1353   YY=   157.0037   ZY=     6.8296
   XZ=   -12.9596   YZ=    23.7187   ZZ=   120.2745
   Eigenvalues:   104.2551   144.8349   179.7126
     74  H    Isotropic =    32.1440   Anisotropy =     6.2999
   XX=    34.9628   YX=     1.4213   ZX=    -0.4919
   XY=     2.3121   YY=    32.7046   ZY=    -0.1618
   XZ=    -3.5504   YZ=     1.0821   ZZ=    28.7647
   Eigenvalues:    27.9484    32.1397    36.3440
     75  H    Isotropic =    29.8182   Anisotropy =     6.0974
   XX=    31.0233   YX=     3.6655   ZX=    -2.9045
   XY=     1.7213   YY=    29.4023   ZY=    -1.2223
   XZ=     2.8743   YZ=    -4.8931   ZZ=    29.0288
   Eigenvalues:    25.4758    30.0956    33.8831
     76  Cl   Isotropic =   845.2312   Anisotropy =   226.0018
   XX=   835.1084   YX=   -58.9210   ZX=    85.2721
   XY=   -79.5860   YY=   773.7808   ZY=   -22.9896
   XZ=    86.1755   YZ=   -37.3018   ZZ=   926.8044
   Eigenvalues:   725.6402   814.1543   995.8991
     77  C    Isotropic =   147.5374   Anisotropy =    45.7798
   XX=   153.6097   YX=    23.0748   ZX=    -1.1087
   XY=    20.0140   YY=   157.9593   ZY=    12.3018
   XZ=    -6.5367   YZ=     8.8049   ZZ=   131.0433
   Eigenvalues:   122.2614   142.2936   178.0573
     78  H    Isotropic =    29.0475   Anisotropy =    13.3196
   XX=    36.8058   YX=     3.1135   ZX=     1.0123
   XY=     1.4571   YY=    29.7883   ZY=     3.6459
   XZ=     1.9513   YZ=     4.9693   ZZ=    20.5483
   Eigenvalues:    18.8349    30.3803    37.9272
     79  H    Isotropic =    29.6543   Anisotropy =     9.5925
   XX=    27.2607   YX=     5.2883   ZX=     1.1077
   XY=     7.1964   YY=    31.5966   ZY=     0.1637
   XZ=    -1.0161   YZ=    -0.8992   ZZ=    30.1056
   Eigenvalues:    22.8119    30.1017    36.0493
     80  C    Isotropic =   148.2577   Anisotropy =    36.7099
   XX=   150.4525   YX=    21.9549   ZX=    -0.9973
   XY=    16.1462   YY=   155.6600   ZY=    10.7109
   XZ=    -4.4395   YZ=     4.2021   ZZ=   138.6605
   Eigenvalues:   128.7709   143.2712   172.7310
     81  H    Isotropic =    29.9576   Anisotropy =     7.3144
   XX=    27.5999   YX=     3.7851   ZX=    -1.7242
   XY=     4.8171   YY=    30.4990   ZY=    -0.9637
   XZ=    -1.5615   YZ=    -1.4535   ZZ=    31.7740
   Eigenvalues:    24.4534    30.5857    34.8339
     82  H    Isotropic =    29.8975   Anisotropy =     8.1959
   XX=    35.3380   YX=     0.6280   ZX=     0.0462
   XY=     0.0588   YY=    29.7575   ZY=     1.6695
   XZ=     0.0026   YZ=     2.6105   ZZ=    24.5970
   Eigenvalues:    23.8243    30.5068    35.3615
     83  C    Isotropic =   163.8120   Anisotropy =    34.4824
   XX=   156.0747   YX=     5.3990   ZX=    -0.6485
   XY=     9.8791   YY=   175.0784   ZY=    14.5098
   XZ=     0.0999   YZ=    17.9034   ZZ=   160.2830
   Eigenvalues:   147.3820   157.2538   186.8003
     84  H    Isotropic =    29.8892   Anisotropy =    13.1689
   XX=    31.7815   YX=     6.1584   ZX=    -0.5919
   XY=     6.8629   YY=    32.3772   ZY=     1.3567
   XZ=    -0.0279   YZ=     1.9081   ZZ=    25.5090
   Eigenvalues:    24.1502    26.8490    38.6685
     85  H    Isotropic =    30.9941   Anisotropy =     6.5743
   XX=    31.5412   YX=    -1.1262   ZX=     1.3905
   XY=    -2.0684   YY=    34.6219   ZY=     1.0545
   XZ=    -0.2805   YZ=     1.1534   ZZ=    26.8191
   Eigenvalues:    26.5406    31.0646    35.3769
     86  H    Isotropic =    30.8239   Anisotropy =     7.6596
   XX=    28.6365   YX=     2.4513   ZX=     2.1752
   XY=     1.3739   YY=    29.3548   ZY=     2.1924
   XZ=     2.5464   YZ=     0.6512   ZZ=    34.4805
   Eigenvalues:    26.9094    29.6321    35.9304
 End of Minotr F.D. properties file   721 does not exist.
[...]
 Alpha virt. eigenvalues --    1.54804   1.55152   1.55952   1.56098   1.56427
 Alpha virt. eigenvalues --    1.56878   1.56921   1.57460   1.57582   1.58051
 Alpha virt. eigenvalues --    1.58333   1.58717   1.58867   1.59271   1.59467
 Alpha virt. eigenvalues --    1.59793   1.60168   1.60488   1.60679   1.60899
 Alpha virt. eigenvalues --    1.61315   1.61391   1.61830   1.62092   1.62253
 Alpha virt. eigenvalues --    1.62413   1.62617   1.62786   1.63264   1.63562
 Alpha virt. eigenvalues --    1.63850   1.64026   1.64331   1.64969   1.65024
 Alpha virt. eigenvalues --    1.65407   1.65554   1.65687   1.66097   1.66462
 Alpha virt. eigenvalues --    1.66754   1.67104   1.67435   1.67793   1.67892
 Alpha virt. eigenvalues --    1.67937   1.68410   1.68741   1.68831   1.69136
 Alpha virt. eigenvalues --    1.69496   1.69712   1.69956   1.70127   1.70359
 Alpha virt. eigenvalues --    1.70475   1.70662   1.71112   1.71383   1.71588
 Alpha virt. eigenvalues --    1.71915   1.72196   1.72266   1.72509   1.72764
 Alpha virt. eigenvalues --    1.72908   1.73120   1.73322   1.73966   1.74160
 Alpha virt. eigenvalues --    1.74431   1.74592   1.74860   1.75529   1.75654
 Alpha virt. eigenvalues --    1.75799   1.76109   1.76366   1.76779   1.76803
 Alpha virt. eigenvalues --    1.77240   1.77559   1.78001   1.78404   1.78870
 Alpha virt. eigenvalues --    1.79055   1.79921   1.80270   1.80402   1.80743
 Alpha virt. eigenvalues --    1.81131   1.81459   1.81769   1.82103   1.82604
 Alpha virt. eigenvalues --    1.83182   1.83520   1.83715   1.84483   1.84810
 Alpha virt. eigenvalues --    1.85335   1.85618   1.85693   1.86434   1.87069
 Alpha virt. eigenvalues --    1.87316   1.87423   1.88277   1.88663   1.88777
 Alpha virt. eigenvalues --    1.89248   1.89774   1.89888   1.90032   1.90307
 Alpha virt. eigenvalues --    1.90651   1.90758   1.91539   1.91905   1.91976
 Alpha virt. eigenvalues --    1.92199   1.92770   1.93494   1.93654   1.94023
 Alpha virt. eigenvalues --    1.94603   1.95019   1.95425   1.95641   1.95945
 Alpha virt. eigenvalues --    1.96142   1.96554   1.96901   1.97503   1.97997
 Alpha virt. eigenvalues --    1.98099   1.98662   1.99275   1.99659   1.99766
 Alpha virt. eigenvalues --    2.00094   2.00432   2.00776   2.01222   2.01588
 Alpha virt. eigenvalues --    2.01656   2.02166   2.02318   2.02565   2.03168
 Alpha virt. eigenvalues --    2.03763   2.03993   2.04249   2.04444   2.04694
 Alpha virt. eigenvalues --    2.04941   2.05172   2.05813   2.06233   2.06580
 Alpha virt. eigenvalues --    2.07020   2.07132   2.07970   2.08193   2.08598
 Alpha virt. eigenvalues --    2.08802   2.08985   2.09228   2.09805   2.09933
 Alpha virt. eigenvalues --    2.10113   2.10318   2.10776   2.11003   2.11506
 Alpha virt. eigenvalues --    2.11917   2.12045   2.12654   2.13131   2.13199
 Alpha virt. eigenvalues --    2.13476   2.13702   2.13937   2.14489   2.14918
 Alpha virt. eigenvalues --    2.15458   2.15566   2.16100   2.16293   2.16518
 Alpha virt. eigenvalues --    2.16783   2.17474   2.17671   2.18294   2.18493
 Alpha virt. eigenvalues --    2.18584   2.19396   2.19595   2.19961   2.20215
 Alpha virt. eigenvalues --    2.20521   2.20747   2.21039   2.21636   2.22121
 Alpha virt. eigenvalues --    2.22302   2.22563   2.23140   2.23392   2.23697
 Alpha virt. eigenvalues --    2.24048   2.24659   2.24906   2.25763   2.26074
 Alpha virt. eigenvalues --    2.26118   2.26906   2.27436   2.28196   2.28530
 Alpha virt. eigenvalues --    2.28884   2.29470   2.29597   2.30180   2.30420
 Alpha virt. eigenvalues --    2.30648   2.31004   2.31656   2.32029   2.32462
 Alpha virt. eigenvalues --    2.32837   2.33368   2.33577   2.34247   2.34405
 Alpha virt. eigenvalues --    2.34703   2.34930   2.35318   2.35704   2.35986
 Alpha virt. eigenvalues --    2.36591   2.36892   2.37197   2.37653   2.37926
 Alpha virt. eigenvalues --    2.38098   2.39054   2.39254   2.39493   2.39611
 Alpha virt. eigenvalues --    2.40186   2.40289   2.40897   2.41164   2.41453
 Alpha virt. eigenvalues --    2.41826   2.41973   2.42247   2.42279   2.42635
 Alpha virt. eigenvalues --    2.42943   2.43332   2.44392   2.45010   2.45437
 Alpha virt. eigenvalues --    2.46153   2.46240   2.46632   2.46871   2.47831
 Alpha virt. eigenvalues --    2.48237   2.48585   2.49330   2.49977   2.50495
 Alpha virt. eigenvalues --    2.50871   2.51196   2.51380   2.51895   2.52998
 Alpha virt. eigenvalues --    2.53366   2.53681   2.54479   2.54785   2.55209
 Alpha virt. eigenvalues --    2.55799   2.56050   2.56421   2.56906   2.57106
 Alpha virt. eigenvalues --    2.57597   2.58460   2.59397   2.59480   2.60290
 Alpha virt. eigenvalues --    2.60920   2.61361   2.61798   2.62148   2.63044
 Alpha virt. eigenvalues --    2.63518   2.64060   2.64325   2.64969   2.65258
 Alpha virt. eigenvalues --    2.65381   2.65686   2.66427   2.66630   2.67378
 Alpha virt. eigenvalues --    2.67409   2.68270   2.68709   2.69033   2.69239
 Alpha virt. eigenvalues --    2.69916   2.70146   2.70288   2.70839   2.71683
 Alpha virt. eigenvalues --    2.71886   2.72356   2.72611   2.72961   2.73350
 Alpha virt. eigenvalues --    2.73388   2.74047   2.74574   2.74860   2.75121
 Alpha virt. eigenvalues --    2.75486   2.76001   2.76171   2.76708   2.77535
 Alpha virt. eigenvalues --    2.77758   2.78347   2.78631   2.79023   2.79492
 Alpha virt. eigenvalues --    2.80268   2.80440   2.81216   2.82508   2.83001
 Alpha virt. eigenvalues --    2.84106   2.84772   2.85091   2.85651   2.86048
 Alpha virt. eigenvalues --    2.86947   2.86986   2.87565   2.88597   2.89163
 Alpha virt. eigenvalues --    2.89757   2.90338   2.90913   2.91443   2.92699
 Alpha virt. eigenvalues --    2.92745   2.93208   2.93539   2.93907   2.94905
 Alpha virt. eigenvalues --    2.95401   2.95828   2.96034   2.96578   2.96865
 Alpha virt. eigenvalues --    2.97542   2.97812   2.98666   2.98838   2.99510
 Alpha virt. eigenvalues --    2.99898   3.00196   3.00615   3.00985   3.01083
 Alpha virt. eigenvalues --    3.02017   3.02148   3.02604   3.02910   3.05120
 Alpha virt. eigenvalues --    3.05680   3.05807   3.06587   3.07622   3.08869
 Alpha virt. eigenvalues --    3.09124   3.09427   3.10637   3.11087   3.11725
 Alpha virt. eigenvalues --    3.12169   3.12632   3.13547   3.14239   3.14772
 Alpha virt. eigenvalues --    3.14895   3.15247   3.16021   3.16084   3.16526
 Alpha virt. eigenvalues --    3.16896   3.17276   3.17787   3.18338   3.20221
 Alpha virt. eigenvalues --    3.20480   3.21352   3.21588   3.21970   3.22893
 Alpha virt. eigenvalues --    3.23065   3.23309   3.23809   3.24406   3.24825
 Alpha virt. eigenvalues --    3.25177   3.26245   3.26713   3.28007   3.29077
 Alpha virt. eigenvalues --    3.31500   3.33347   3.33661   3.34198   3.34842
 Alpha virt. eigenvalues --    3.36112   3.38698   3.39003   3.39482   3.43059
 Alpha virt. eigenvalues --    3.44587   3.45618   3.46467   3.47646   3.48548
 Alpha virt. eigenvalues --    3.48837   3.49751   3.51282   3.52173   3.52634
 Alpha virt. eigenvalues --    3.52786   3.53143   3.54499   3.55205   3.58263
 Alpha virt. eigenvalues --    3.59588   3.74124   3.75572   3.80105   3.92499
 Alpha virt. eigenvalues --    3.93815   3.98072   4.00948   4.01898   4.07108
 Alpha virt. eigenvalues --    4.07541   4.15531   4.16608   4.18514   4.18928
 Alpha virt. eigenvalues --    4.20181   4.21370   4.22541   4.23940   4.24265
 Alpha virt. eigenvalues --    4.25353   4.25737   4.27357   4.29113   4.30687
 Alpha virt. eigenvalues --    4.32663   4.33242   4.34098   4.34821   4.35665
 Alpha virt. eigenvalues --    4.36269   4.37877   4.38414   4.40425   4.40947
 Alpha virt. eigenvalues --    4.42867   4.44338   4.47177   4.47696   4.49529
 Alpha virt. eigenvalues --    4.51223   4.51554   4.52300   4.52913   4.55484
 Alpha virt. eigenvalues --    4.56215   4.58629   4.78186   4.78567   4.79420
 Alpha virt. eigenvalues --    4.79744   4.80166   4.81151   5.52813   5.66204
 Alpha virt. eigenvalues --    5.82539   5.91633   6.11062   6.14999   6.62843
 Alpha virt. eigenvalues --    6.64584   6.65133   6.65486   6.66421   6.68029
 Alpha virt. eigenvalues --    6.69644   6.70462   6.77662   6.78160   6.78925
 Alpha virt. eigenvalues --    6.79479   6.81668   6.82454   6.83684   6.84060
 Alpha virt. eigenvalues --    6.84607   6.86339   6.87377   6.88033   6.89538
 Alpha virt. eigenvalues --    6.91311   6.92152   6.93426   6.94239   6.95187
 Alpha virt. eigenvalues --    6.97539   6.97731   6.98895   6.99171   7.02056
 Alpha virt. eigenvalues --    7.02471   7.06963   7.08356   7.08676   7.11205
 Alpha virt. eigenvalues --    7.12700   7.14597   7.25471   7.26255   7.26843
 Alpha virt. eigenvalues --    7.28618   7.29580   7.30081   7.77038   7.79514
 Alpha virt. eigenvalues --    7.80465   7.82039   7.83131   7.84775   8.49079
 Alpha virt. eigenvalues --    8.49859   8.50297   8.50406   8.51486   8.52290
 Alpha virt. eigenvalues --    8.54619   8.57292   8.59859   9.02390   9.86399
 Alpha virt. eigenvalues --    9.88942   9.94162   9.95511   9.95819   9.99828
 Alpha virt. eigenvalues --   10.01032  10.04284  10.06335  10.08386  10.09536
 Alpha virt. eigenvalues --   10.10153  10.18423  10.26579  14.22072  14.24658
 Alpha virt. eigenvalues --   15.74297  16.75811  16.92488  16.94058  17.03621
 Alpha virt. eigenvalues --   17.04251  17.04677  17.04858  17.05559  17.05999
 Alpha virt. eigenvalues --   17.06518  17.06720  17.07265  17.08291  17.08512
 Alpha virt. eigenvalues --   17.09282  17.10130  17.10486  17.12603  17.13205
 Alpha virt. eigenvalues --   17.14663  17.16041  17.17872  17.18334  17.20608
 Alpha virt. eigenvalues --   17.21270  17.22725  17.24664  17.25594  17.27687
 Alpha virt. eigenvalues --   17.29945  17.30477  17.32360  17.32689  17.33310
 Alpha virt. eigenvalues --   17.33735  17.34907  17.35235  17.35646  17.37818
 Alpha virt. eigenvalues --   17.38985  17.40007  17.40949  17.44935  21.12539
 Alpha virt. eigenvalues --   21.31930  21.35861  25.51342  25.60657  25.74952
 Alpha virt. eigenvalues --   26.16635  31.71439  31.75279  31.77435  31.79111
 Alpha virt. eigenvalues --   31.83406  42.98557  43.00842  43.04230  43.05561
 Alpha virt. eigenvalues --   43.15833  61.91800  61.93990  63.10800  78.08752
 Alpha virt. eigenvalues --   78.23529  78.36811  82.20231  86.22495  86.39025
 Alpha virt. eigenvalues --   86.41647  89.15351  89.29816  89.30287  89.30876
 Alpha virt. eigenvalues --   89.31410  89.32470  89.32621  89.33144  89.33595
 Alpha virt. eigenvalues --   89.34041  89.34946  89.35649  89.36748  89.36829
 Alpha virt. eigenvalues --   89.38297  89.38469  89.40071  89.41334  89.42771
 Alpha virt. eigenvalues --   89.42929  89.46640  89.47452  89.48679  89.49848
 Alpha virt. eigenvalues --   89.51343  89.53699  89.55722  89.56303  89.58719
 Alpha virt. eigenvalues --   89.59811  89.60245  89.60835  89.61907  89.62506
 Alpha virt. eigenvalues --   89.62959  89.64814  89.65827  89.66499  89.68286
 Alpha virt. eigenvalues --   89.70984 121.85931 121.92617 122.02993 239.27795
 Alpha virt. eigenvalues --  257.31333 332.25092 332.27427 428.80995 428.93818
 Alpha virt. eigenvalues --  428.96051 431.70485 431.85994 431.99940 590.23045
 Alpha virt. eigenvalues --  590.28236 590.36204 772.98923 839.669622068.58912
 Alpha virt. eigenvalues -- 2530.039245495.38939******************************
          Condensed to atoms (all electrons):
 Mulliken charges:
               1
     1  Pt   0.383419
     2  P    1.172634
     3  P    0.847021
     4  C   -0.935588
     5  C    0.306686
     6  C    0.415503
     7  C    0.038656
     8  H    0.097524
     9  C   -0.220229
    10  H    0.074658
    11  C   -0.596224
    12  H    0.144410
    13  H    0.137578
    14  H    0.155540
    15  C   -0.881846
    16  C    0.662347
    17  C    0.244113
    18  C   -0.048372
    19  H    0.054877
    20  C   -0.278359
    21  H    0.099738
    22  C   -0.573421
    23  H    0.140417
    24  H    0.144382
    25  H    0.154542
    26  C   -0.961706
    27  C    0.576508
    28  C    0.158451
    29  C    0.012397
    30  H    0.067328
    31  C   -0.170520
    32  H    0.076059
    33  C   -0.579010
    34  H    0.123861
    35  H    0.139984
    36  H    0.149710
    37  C   -0.939956
    38  C    0.260683
    39  C    0.430060
    40  C   -0.178429
    41  H    0.090509
    42  C   -0.016801
    43  H    0.105581
    44  C   -0.511935
    45  H    0.139758
    46  H    0.142847
    47  H    0.152334
    48  C   -0.866676
    49  C    0.383759
    50  C    0.447913
    51  C   -0.158935
    52  H    0.059012
    53  C    0.025491
    54  H    0.053948
    55  C   -0.494017
    56  H    0.121045
    57  H    0.134235
    58  H    0.147817
    59  C   -0.798663
    60  C    0.252321
    61  C    0.445660
    62  C    0.045568
    63  H    0.096093
    64  C   -0.192798
    65  H    0.055580
    66  C   -0.582292
    67  H    0.142669
    68  H    0.136446
    69  H    0.155523
    70  Sn   0.191576
    71  Cl  -0.399246
    72  Cl  -0.264461
    73  C   -0.135980
    74  H    0.093495
    75  H    0.096781
    76  Cl  -0.318607
    77  C   -0.099676
    78  H    0.073505
    79  H    0.076152
    80  C   -0.262871
    81  H    0.123084
    82  H    0.125170
    83  C   -0.339381
    84  H    0.149485
    85  H    0.135726
    86  H    0.137830
 Sum of Mulliken charges =   0.00000
 Mulliken charges with hydrogens summed into heavy atoms:
               1
     1  Pt   0.383419
     2  P    1.172634
     3  P    0.847021
     4  C   -0.935588
     5  C    0.404209
     6  C    0.490161
     7  C    0.183067
     9  C   -0.082651
    11  C   -0.440685
    15  C   -0.881846
    16  C    0.717224
    17  C    0.343851
    18  C    0.092045
    20  C   -0.133977
    22  C   -0.418879
    26  C   -0.961706
    27  C    0.643836
    28  C    0.234509
    29  C    0.136258
    31  C   -0.030536
    33  C   -0.429300
    37  C   -0.939956
    38  C    0.351192
    39  C    0.535641
    40  C   -0.038671
    42  C    0.126046
    44  C   -0.359601
    48  C   -0.866676
    49  C    0.442771
    50  C    0.501861
    51  C   -0.037890
    53  C    0.159727
    55  C   -0.346200
    59  C   -0.798663
    60  C    0.348413
    61  C    0.501240
    62  C    0.188237
    64  C   -0.056352
    66  C   -0.426769
    70  Sn   0.191576
    71  Cl  -0.399246
    72  Cl  -0.264461
    73  C    0.054295
    76  Cl  -0.318607
    77  C    0.049981
    80  C   -0.014617
    83  C    0.083659
 Electronic spatial extent (au):  <R**2>=          31484.8479
 Charge=              0.0000 electrons
 Dipole moment (field-independent basis, Debye):
    X=            -15.4528    Y=             -1.7947    Z=              1.6792  Tot=             15.6471
 Quadrupole moment (field-independent basis, Debye-Ang):
   XX=           -357.5738   YY=           -328.7535   ZZ=           -324.8066
   XY=             10.4196   XZ=              8.9294   YZ=              0.5973
 Traceless Quadrupole moment (field-independent basis, Debye-Ang):
   XX=            -20.5291   YY=              8.2911   ZZ=             12.2380
   XY=             10.4196   XZ=              8.9294   YZ=              0.5973
 Octapole moment (field-independent basis, Debye-Ang**2):
  XXX=            -52.2944  YYY=             11.5649  ZZZ=            -23.8017  XYY=             -7.7340
  XXY=              4.6115  XXZ=            -49.7375  XZZ=            -64.8400  YZZ=             10.5877
  YYZ=              7.3268  XYZ=             31.5770
 Hexadecapole moment (field-independent basis, Debye-Ang**3):
 XXXX=         -18481.0017 YYYY=         -14970.3389 ZZZZ=          -7439.6943 XXXY=            379.7013
 XXXZ=             86.9475 YYYX=           -337.4060 YYYZ=            125.5721 ZZZX=             35.8225
 ZZZY=           -157.0016 XXYY=          -5418.5042 XXZZ=          -4453.0294 YYZZ=          -3709.6556
 XXYZ=           -217.5246 YYXZ=             66.4799 ZZXY=             87.4703
 N-N= 1.286211706765D+04 E-N=-8.887152603095D+04  KE= 2.629284570069D+04
 Calculating spin-rotation constants.
 Leave Link  601 at Thu Dec 12 20:45:42 2019, MaxMem=  4026531840 cpu:      2595.5
 (Enter /scr/programs/g09/l9999.exe)
 1\1\GINC-NEQC27\SP\RPBEPBE\Gen\C40H39Cl3P2Pt1Sn1\GUEST\12-Dec-2019\0\\
 #PBEPBE/gen scf=(maxcycle=500,conver=3) NMR=GIAO Scrf=(solvent=Dichlor
 omethane)\\estrutura 96\\0,1\Pt,0,0.274966,0.275882,-0.275924\P,0,-1.8
 85908,1.456778,0.05352\P,0,-0.36249,-1.91089,0.106974\C,0,-2.574564,2.
 175944,-1.498069\C,0,-3.685243,3.044058,-1.464462\C,0,-2.02185,1.82551
 1,-2.738667\C,0,-4.204967,3.573451,-2.648108\H,0,-4.159237,3.308281,-0
 .515732\C,0,-2.55707,2.340228,-3.924893\H,0,-1.172818,1.14382,-2.77884
 1\C,0,-3.638459,3.222666,-3.882216\H,0,-5.05681,4.259327,-2.606491\H,0
 ,-2.123484,2.0497,-4.882901\H,0,-4.050714,3.633672,-4.807646\C,0,-1.44
 0504,2.877083,1.153299\C,0,-0.878285,2.595726,2.412728\C,0,-1.556735,4
 .218932,0.755733\C,0,-0.489448,3.626465,3.272117\H,0,-0.723571,1.56322
 5,2.727661\C,0,-1.159101,5.250193,1.613611\H,0,-1.93673,4.473274,-0.23
 3287\C,0,-0.63368,4.960497,2.875637\H,0,-0.062281,3.383133,4.248394\H,
 0,-1.255321,6.288152,1.283751\H,0,-0.324072,5.768651,3.542973\C,0,-3.4
 03601,0.716927,0.825825\C,0,-4.34235,0.08081,-0.007991\C,0,-3.65069,0.
 756079,2.209912\C,0,-5.503056,-0.484563,0.52645\H,0,-4.17927,0.033202,
 -1.085786\C,0,-4.810072,0.182322,2.742017\H,0,-2.954385,1.250244,2.886
 797\C,0,-5.740674,-0.437198,1.903248\H,0,-6.222868,-0.964704,-0.141295
 \H,0,-4.984985,0.22891,3.820054\H,0,-6.650502,-0.877585,2.320336\C,0,0
 .834114,-3.284719,-0.237231\C,0,0.761878,-4.090554,-1.384492\C,0,1.834
 526,-3.544436,0.716248\C,0,1.672876,-5.134786,-1.570741\H,0,-0.007565,
 -3.920669,-2.136938\C,0,2.745154,-4.583274,0.522429\H,0,1.920244,-2.92
 5354,1.610609\C,0,2.666073,-5.384607,-0.620579\H,0,1.600709,-5.756031,
 -2.467087\H,0,3.52238,-4.763551,1.269553\H,0,3.377664,-6.200621,-0.769
 988\C,0,-1.762129,-2.277793,-1.039218\C,0,-2.961817,-2.896374,-0.65728
 3\C,0,-1.57426,-1.934301,-2.392736\C,0,-3.941282,-3.189576,-1.61349\H,
 0,-3.155339,-3.141307,0.386263\C,0,-2.552803,-2.229268,-3.343939\H,0,-
 0.651956,-1.437435,-2.704607\C,0,-3.738531,-2.863783,-2.956506\H,0,-4.
 87063,-3.669821,-1.298502\H,0,-2.387844,-1.960958,-4.390412\H,0,-4.504
 579,-3.09726,-3.700383\C,0,-0.856883,-2.328215,1.831126\C,0,-1.377904,
 -3.598538,2.148121\C,0,-0.609645,-1.416741,2.868468\C,0,-1.695638,-3.9
 21414,3.469146\H,0,-1.520631,-4.350333,1.368838\C,0,-0.910764,-1.74853
 1,4.193684\H,0,-0.146936,-0.455644,2.63841\C,0,-1.467966,-2.994407,4.4
 93918\H,0,-2.112824,-4.904942,3.699939\H,0,-0.702778,-1.031115,4.99132
 6\H,0,-1.710857,-3.252773,5.528014\Sn,0,2.896153,-0.024027,-0.414854\C
 l,0,1.060874,2.46027,-1.077973\Cl,0,3.714695,-1.710331,-2.000432\C,0,4
 .476758,1.447878,-0.782585\H,0,5.391452,0.833957,-0.781033\H,0,4.31399
 8,1.807176,-1.810815\Cl,0,3.739008,-0.799464,1.786075\C,0,4.560755,2.5
 99852,0.215925\H,0,3.626564,3.18429,0.182621\H,0,4.641616,2.201456,1.2
 41895\C,0,5.752122,3.534082,-0.051536\H,0,5.714827,3.878349,-1.103231\
 H,0,6.693331,2.957633,0.04461\C,0,5.793167,4.747853,0.878694\H,0,6.674
 487,5.380044,0.67834\H,0,4.895488,5.37765,0.752055\H,0,5.834708,4.4411
 99,1.937975\\Version=EM64L-G09RevD.01\State=1-A\HF=-26699.972884\RMSD=
 1.671e-04\Dipole=-6.0796104,-0.7061008,0.6606338\Quadrupole=-15.262908
 8,6.1642374,9.0986714,7.7467153,6.6387947,0.4440645\PG=C01 [X(C40H39Cl
 3P2Pt1Sn1)]\\@


 IT PROBABLY IS NOT POSSIBLE FOR A SCIENTIST TO INTERROGATE NATURE 
 FROM A WHOLLY DISINTERESTED VIEWPOINT.
 EVEN IF HE HAS NO PARTICULAR AXE TO GRIND, HE IS LIKELY TO HAVE 
 A DISTINCTIVE WAY OF VIEWING NATURE.

                                                   -- JOHN LOSEE
 Job cpu time:       1 days 20 hours 33 minutes 28.5 seconds.
 File lengths (MBytes):  RWF=   2407 Int=      0 D2E=      0 Chk=    171 Scr=      1
 Normal termination of Gaussian 09 at Thu Dec 12 20:45:43 2019.
