 Entering Gaussian System, Link 0=g09
 Input=estrutura55.com
 Output=estrutura55.log
 Initial command:
 /home/scr/programs/g09/l1.exe /home/scr/guest1/Gau-32137.inp -scrdir=/home/scr/guest1/
 Entering Link 1 = /home/scr/programs/g09/l1.exe PID=     32138.
  
 Copyright (c) 1988,1990,1992,1993,1995,1998,2003,2009, Gaussian, Inc.
                  All Rights Reserved.
  
 This is part of the Gaussian(R) 09 program.  It is based on
 the Gaussian(R) 03 system (copyright 2003, Gaussian, Inc.),
 the Gaussian(R) 98 system (copyright 1998, Gaussian, Inc.),
 the Gaussian(R) 94 system (copyright 1995, Gaussian, Inc.),
 the Gaussian 92(TM) system (copyright 1992, Gaussian, Inc.),
 the Gaussian 90(TM) system (copyright 1990, Gaussian, Inc.),
 the Gaussian 88(TM) system (copyright 1988, Gaussian, Inc.),
 the Gaussian 86(TM) system (copyright 1986, Carnegie Mellon
 University), and the Gaussian 82(TM) system (copyright 1983,
 Carnegie Mellon University). Gaussian is a federally registered
 trademark of Gaussian, Inc.
  
 This software contains proprietary and confidential information,
 including trade secrets, belonging to Gaussian, Inc.
  
 This software is provided under written license and may be
 used, copied, transmitted, or stored only in accord with that
 written license.
  
 The following legend is applicable only to US Government
 contracts under FAR:
  
                    RESTRICTED RIGHTS LEGEND
  
 Use, reproduction and disclosure by the US Government is
 subject to restrictions as set forth in subparagraphs (a)
 and (c) of the Commercial Computer Software - Restricted
 Rights clause in FAR 52.227-19.
  
 Gaussian, Inc.
 340 Quinnipiac St., Bldg. 40, Wallingford CT 06492
  
  
 ---------------------------------------------------------------
 Warning -- This program may not be used in any manner that
 competes with the business of Gaussian, Inc. or will provide
 assistance to any competitor of Gaussian, Inc.  The licensee
 of this program is prohibited from giving any competitor of
 Gaussian, Inc. access to this program.  By using this program,
 the user acknowledges that Gaussian, Inc. is engaged in the
 business of creating and licensing software in the field of
 computational chemistry and represents and warrants to the
 licensee that it is not a competitor of Gaussian, Inc. and that
 it will not use this program in any manner prohibited above.
 ---------------------------------------------------------------
  

 Cite this work as:
 Gaussian 09, Revision A.02,
 M. J. Frisch, G. W. Trucks, H. B. Schlegel, G. E. Scuseria, 
 M. A. Robb, J. R. Cheeseman, G. Scalmani, V. Barone, B. Mennucci, 
 G. A. Petersson, H. Nakatsuji, M. Caricato, X. Li, H. P. Hratchian, 
 A. F. Izmaylov, J. Bloino, G. Zheng, J. L. Sonnenberg, M. Hada, 
 M. Ehara, K. Toyota, R. Fukuda, J. Hasegawa, M. Ishida, T. Nakajima, 
 Y. Honda, O. Kitao, H. Nakai, T. Vreven, J. A. Montgomery, Jr., 
 J. E. Peralta, F. Ogliaro, M. Bearpark, J. J. Heyd, E. Brothers, 
 K. N. Kudin, V. N. Staroverov, R. Kobayashi, J. Normand, 
 K. Raghavachari, A. Rendell, J. C. Burant, S. S. Iyengar, J. Tomasi, 
 M. Cossi, N. Rega, J. M. Millam, M. Klene, J. E. Knox, J. B. Cross, 
 V. Bakken, C. Adamo, J. Jaramillo, R. Gomperts, R. E. Stratmann, 
 O. Yazyev, A. J. Austin, R. Cammi, C. Pomelli, J. W. Ochterski, 
 R. L. Martin, K. Morokuma, V. G. Zakrzewski, G. A. Voth, 
 P. Salvador, J. J. Dannenberg, S. Dapprich, A. D. Daniels, 
 O. Farkas, J. B. Foresman, J. V. Ortiz, J. Cioslowski, 
 and D. J. Fox, Gaussian, Inc., Wallingford CT, 2009.
 
 ******************************************
 Gaussian 09:  EM64L-G09RevA.02 11-Jun-2009
                15-Jun-2019 
 ******************************************
 %mem=100Gb
 %nproc=32
 Will use up to   32 processors via shared memory.
 ----------------------------------------------------------------------
 #PBEPBE/gen scf=(maxcycle=500,conver=4) NMR=GIAO Scrf=(solvent=Dichlor
 omethane)
 ----------------------------------------------------------------------
 1/38=1/1;
 2/12=2,17=6,18=5,40=1/2;
 3/5=7,11=2,16=1,25=1,30=1,70=2201,72=9,74=1009/1,2,8,3;
 4//1;
 5/5=2,6=4,7=500,38=5,53=9/2;
 8/6=1,10=90,11=11/1;
 10/13=100,45=16/2;
 6/7=2,8=2,9=2,10=2,28=1/1;
 99/9=1/99;
 Leave Link    1 at Sat Jun 15 10:23:01 2019, MaxMem=13421772800 cpu:       2.9
 (Enter /home/scr/programs/g09/l101.exe)
 ------------
 estrutura 55
 ------------
 Symbolic Z-matrix:
 Charge =  0 Multiplicity = 1
 P                    -1.54876   1.77939  -0.59782 
 P                     1.17331  -1.73927   1.13669 
 C                    -3.23894   1.72114   0.05121 
 C                    -3.46259   2.78135   0.86356 
 C                    -2.3128    3.73773   0.94597 
 C                    -1.23996   3.37182   0.20421 
 C                    -4.72852   3.01864   1.63389 
 C                    -2.38852   4.97605   1.78883 
 C                     1.8909   -2.97764   0.04198 
 C                     3.24596  -2.9152    0.09302 
 C                     3.76823  -1.88825   1.04951 
 C                     2.79745  -1.21508   1.72234 
 C                     4.15057  -3.78178  -0.73625 
 C                     5.23742  -1.64086   1.2208 
 H                    -3.95803   0.92543  -0.14634 
 H                    -0.31234   3.93521   0.10652 
 H                    -5.16752   4.00112   1.39558 
 H                    -5.47341   2.23944   1.42474 
 H                    -4.53109   3.02      2.7191 
 H                    -3.30346   5.55408   1.57514 
 H                    -2.42862   4.7113    2.86059 
 H                    -1.51489   5.62199   1.62721 
 H                     1.30278  -3.6475   -0.58327 
 H                     2.96856  -0.42565   2.45393 
 H                     5.18172  -3.81218  -0.35288 
 H                     3.76562  -4.81112  -0.77533 
 H                     4.19109  -3.40726  -1.77525 
 H                     5.72323  -2.48624   1.73843 
 H                     5.73162  -1.53849   0.24323 
 H                     5.42103  -0.7295    1.80394 
 Pt                   -0.13855  -0.01219   0.13193 
 Sn                    2.06385   1.42627  -0.31484 
 Cl                    1.81191   3.4371   -1.66377 
 Cl                    3.75195   0.35989  -1.68296 
 Cl                    3.39578   2.36408   1.48188 
 C                     0.33982  -2.6042    2.5295 
 H                    -0.47911  -3.22515   2.13946 
 H                     1.07382  -3.24782   3.0354 
 H                    -0.06097  -1.86086   3.23386 
 C                    -1.61704   2.02212  -2.41476 
 H                    -1.85439   1.05881  -2.8855 
 H                    -2.39323   2.76148  -2.65449 
 H                    -0.63539   2.3757   -2.75598 
 Sn                   -2.12246  -1.72308  -0.25922 
 Cl                   -4.04793  -1.79401   1.20525 
 Cl                   -1.60283  -4.08823  -0.3626 
 Cl                   -3.22236  -1.42345  -2.39322 
 
 NAtoms=     47 NQM=     47 NQMF=      0 NMic=      0 NMicF=      0 NTot=     47.
                    Isotopes and Nuclear Properties:
 (Nuclear quadrupole moments (NQMom) in fm**2, nuclear magnetic moments (NMagM)
  in nuclear magnetons)

  Atom         1           2           3           4           5           6           7           8           9          10
 IAtWgt=          31          31          12          12          12          12          12          12          12          12
 AtmWgt=  30.9737634  30.9737634  12.0000000  12.0000000  12.0000000  12.0000000  12.0000000  12.0000000  12.0000000  12.0000000
 NucSpn=           1           1           0           0           0           0           0           0           0           0
 AtZEff=   0.0000000   0.0000000   0.0000000   0.0000000   0.0000000   0.0000000   0.0000000   0.0000000   0.0000000   0.0000000
 NQMom=    0.0000000   0.0000000   0.0000000   0.0000000   0.0000000   0.0000000   0.0000000   0.0000000   0.0000000   0.0000000
 NMagM=    1.1316000   1.1316000   0.0000000   0.0000000   0.0000000   0.0000000   0.0000000   0.0000000   0.0000000   0.0000000

  Atom        11          12          13          14          15          16          17          18          19          20
 IAtWgt=          12          12          12          12           1           1           1           1           1           1
 AtmWgt=  12.0000000  12.0000000  12.0000000  12.0000000   1.0078250   1.0078250   1.0078250   1.0078250   1.0078250   1.0078250
 NucSpn=           0           0           0           0           1           1           1           1           1           1
 AtZEff=   0.0000000   0.0000000   0.0000000   0.0000000   0.0000000   0.0000000   0.0000000   0.0000000   0.0000000   0.0000000
 NQMom=    0.0000000   0.0000000   0.0000000   0.0000000   0.0000000   0.0000000   0.0000000   0.0000000   0.0000000   0.0000000
 NMagM=    0.0000000   0.0000000   0.0000000   0.0000000   2.7928460   2.7928460   2.7928460   2.7928460   2.7928460   2.7928460

  Atom        21          22          23          24          25          26          27          28          29          30
 IAtWgt=           1           1           1           1           1           1           1           1           1           1
 AtmWgt=   1.0078250   1.0078250   1.0078250   1.0078250   1.0078250   1.0078250   1.0078250   1.0078250   1.0078250   1.0078250
 NucSpn=           1           1           1           1           1           1           1           1           1           1
 AtZEff=   0.0000000   0.0000000   0.0000000   0.0000000   0.0000000   0.0000000   0.0000000   0.0000000   0.0000000   0.0000000
 NQMom=    0.0000000   0.0000000   0.0000000   0.0000000   0.0000000   0.0000000   0.0000000   0.0000000   0.0000000   0.0000000
 NMagM=    2.7928460   2.7928460   2.7928460   2.7928460   2.7928460   2.7928460   2.7928460   2.7928460   2.7928460   2.7928460

  Atom        31          32          33          34          35          36          37          38          39          40
 IAtWgt=         195         118          35          35          35          12           1           1           1          12
 AtmWgt= 194.9648000 117.9018000  34.9688527  34.9688527  34.9688527  12.0000000   1.0078250   1.0078250   1.0078250  12.0000000
 NucSpn=           1           0           3           3           3           0           1           1           1           0
 AtZEff=   0.0000000   0.0000000   0.0000000   0.0000000   0.0000000   0.0000000   0.0000000   0.0000000   0.0000000   0.0000000
 NQMom=    0.0000000   0.0000000  -8.1650000  -8.1650000  -8.1650000   0.0000000   0.0000000   0.0000000   0.0000000   0.0000000
 NMagM=    0.6095000   0.0000000   0.8218740   0.8218740   0.8218740   0.0000000   2.7928460   2.7928460   2.7928460   0.0000000

  Atom        41          42          43          44          45          46          47
 IAtWgt=           1           1           1         118          35          35          35
 AtmWgt=   1.0078250   1.0078250   1.0078250 117.9018000  34.9688527  34.9688527  34.9688527
 NucSpn=           1           1           1           0           3           3           3
 AtZEff=   0.0000000   0.0000000   0.0000000   0.0000000   0.0000000   0.0000000   0.0000000
 NQMom=    0.0000000   0.0000000   0.0000000   0.0000000  -8.1650000  -8.1650000  -8.1650000
 NMagM=    2.7928460   2.7928460   2.7928460   0.0000000   0.8218740   0.8218740   0.8218740
 Leave Link  101 at Sat Jun 15 10:23:01 2019, MaxMem=13421772800 cpu:       1.6
 (Enter /home/scr/programs/g09/l202.exe)
                          Input orientation:                          
 ---------------------------------------------------------------------
 Center     Atomic      Atomic             Coordinates (Angstroms)
 Number     Number       Type             X           Y           Z
 ---------------------------------------------------------------------
      1         15           0       -1.548757    1.779391   -0.597815
      2         15           0        1.173308   -1.739273    1.136692
      3          6           0       -3.238943    1.721140    0.051212
      4          6           0       -3.462591    2.781348    0.863561
      5          6           0       -2.312798    3.737729    0.945973
      6          6           0       -1.239964    3.371819    0.204212
      7          6           0       -4.728519    3.018644    1.633889
      8          6           0       -2.388522    4.976046    1.788828
      9          6           0        1.890902   -2.977635    0.041976
     10          6           0        3.245965   -2.915201    0.093023
     11          6           0        3.768229   -1.888246    1.049514
     12          6           0        2.797451   -1.215076    1.722337
     13          6           0        4.150572   -3.781779   -0.736246
     14          6           0        5.237424   -1.640859    1.220803
     15          1           0       -3.958027    0.925430   -0.146340
     16          1           0       -0.312341    3.935209    0.106519
     17          1           0       -5.167516    4.001123    1.395580
     18          1           0       -5.473414    2.239435    1.424735
     19          1           0       -4.531092    3.020004    2.719096
     20          1           0       -3.303461    5.554081    1.575141
     21          1           0       -2.428616    4.711304    2.860593
     22          1           0       -1.514889    5.621990    1.627214
     23          1           0        1.302783   -3.647501   -0.583266
     24          1           0        2.968563   -0.425646    2.453929
     25          1           0        5.181718   -3.812176   -0.352884
     26          1           0        3.765615   -4.811123   -0.775332
     27          1           0        4.191087   -3.407258   -1.775250
     28          1           0        5.723231   -2.486238    1.738426
     29          1           0        5.731617   -1.538492    0.243225
     30          1           0        5.421029   -0.729499    1.803941
     31         78           0       -0.138554   -0.012185    0.131934
     32         50           0        2.063845    1.426270   -0.314839
     33         17           0        1.811908    3.437104   -1.663770
     34         17           0        3.751950    0.359886   -1.682964
     35         17           0        3.395783    2.364080    1.481880
     36          6           0        0.339820   -2.604202    2.529498
     37          1           0       -0.479105   -3.225155    2.139465
     38          1           0        1.073820   -3.247817    3.035398
     39          1           0       -0.060966   -1.860856    3.233864
     40          6           0       -1.617037    2.022124   -2.414760
     41          1           0       -1.854388    1.058812   -2.885495
     42          1           0       -2.393234    2.761475   -2.654487
     43          1           0       -0.635389    2.375697   -2.755980
     44         50           0       -2.122462   -1.723084   -0.259218
     45         17           0       -4.047931   -1.794012    1.205250
     46         17           0       -1.602832   -4.088232   -0.362599
     47         17           0       -3.222357   -1.423447   -2.393218
 ---------------------------------------------------------------------
                    Distance matrix (angstroms):
                    1          2          3          4          5
     1  P    0.000000
     2  P    4.774845   0.000000
     3  C    1.811452   5.711452   0.000000
     4  C    2.608122   6.480908   1.354242   0.000000
     5  C    2.608089   6.495141   2.392692   1.497825   0.000000
     6  C    1.809538   5.728583   2.596934   2.392377   1.354648
     7  C    4.077639   7.597140   2.531249   1.500763   2.612665
     8  C    4.076748   7.629379   3.786415   2.612746   1.499856
     9  C    5.905073   1.801911   6.956571   7.905743   7.973984
    10  C    6.745799   2.601530   7.971916   8.834541   8.711421
    11  C    6.666003   2.600655   7.945108   8.609555   8.284999
    12  C    5.765367   1.804329   6.917519   7.476431   7.158747
    13  C    7.964178   4.067411   9.247007  10.178127  10.057237
    14  C    7.813945   4.066177   9.193464   9.765951   9.274190
    15  H    2.595700   5.922619   1.090533   2.170205   3.436416
    16  H    2.583092   5.955515   3.670172   3.439271   2.178419
    17  H    4.690963   8.557173   3.274911   2.162791   2.901885
    18  H    4.439063   7.751903   2.673585   2.156848   3.530381
    19  H    4.629832   7.595716   3.236403   2.154451   2.929150
    20  H    4.695637   8.568939   4.125283   2.867005   2.162499
    21  H    4.618533   7.586543   4.182144   2.963439   2.151054
    22  H    4.440436   7.852083   4.546732   3.527883   2.156661
    23  H    6.130469   2.572227   7.060605   8.132171   8.363768
    24  H    5.880605   2.585279   6.993917   7.360287   6.892053
    25  H    8.753565   4.752169  10.084067  10.939761  10.717083
    26  H    8.468113   4.451085   9.613400  10.610304  10.629810
    27  H    7.825183   4.513155   9.210960  10.190238  10.037749
    28  H    8.748453   4.649929  10.043370  10.625073  10.195269
    29  H    8.044846   4.649385   9.546361  10.177391   9.645982
    30  H    7.787225   4.416786   9.169122   9.598389   8.972420
    31  Pt   2.393940   2.390262   3.552934   4.403218   4.410425
    32  Sn   3.640833   3.594532   5.323580   5.810883   5.107592
    33  Cl   3.895939   5.919905   5.603284   5.885385   4.890228
    34  Cl   5.593750   4.359624   7.330277   8.024828   7.423092
    35  Cl   5.395875   4.679322   6.817607   6.898821   5.895931
    36  C    5.706373   1.839215   6.136614   6.799840   7.054362
    37  H    5.803649   2.438005   6.036832   6.826946   7.298535
    38  H    6.734313   2.427074   7.224668   7.851543   8.039448
    39  H    5.490600   2.436462   5.749740   6.224102   6.453630
    40  C    1.834358   5.877665   2.966848   3.837952   3.836914
    41  H    2.417876   5.759706   3.313596   4.428190   4.697540
    42  H    2.430541   6.881133   3.019657   3.677034   3.731334
    43  H    2.418160   5.946197   3.884233   4.610716   4.286407
    44  Sn   3.565265   3.579235   3.633948   4.831820   5.595462
    45  Cl   4.718699   5.221976   3.787157   4.625288   5.803281
    46  Cl   5.872585   3.933502   6.049537   7.221724   7.966309
    47  Cl   4.035168   5.646404   3.982956   5.323967   6.214116
                    6          7          8          9         10
     6  C    0.000000
     7  C    3.786651   0.000000
     8  C    2.530561   3.054671   0.000000
     9  C    7.081258   9.072281   9.199239   0.000000
    10  C    7.724153  10.058687   9.843525   1.357461   0.000000
    11  C    7.311964   9.829231   9.250442   2.392960   1.497422
    12  C    6.296430   8.635533   8.076430   2.598472   2.397135
    13  C    9.006459  11.432478  11.217631   2.521584   1.502318
    14  C    8.253300  11.009161  10.112425   3.791545   2.619493
    15  H    3.673632   2.853843   4.755598   7.034156   8.167328
    16  H    1.089696   4.761888   2.867757   7.255747   7.719446
    17  H    4.152234   1.102168   2.971183  10.017813  10.968995
    18  H    4.549073   1.098080   4.139826   9.130334  10.216227
    19  H    4.156915   1.103020   3.046655   9.185894  10.129439
    20  H    3.301474   2.909069   1.103132  10.105552  10.808348
    21  H    3.203666   3.107966   1.104706   9.258651   9.900702
    22  H    2.676525   4.135804   1.098452   9.384346   9.894600
    23  H    7.507099   9.259043   9.675646   1.088821   2.183938
    24  H    6.098661   8.472347   7.636687   3.673080   3.442196
    25  H    9.651846  12.199187  11.795266   3.417871   2.179573
    26  H    9.642399  11.800844  11.842170   2.746674   2.149092
    27  H    8.909011  11.509727  11.237157   2.962725   2.150772
    28  H    9.228040  11.813286  11.022194   4.219734   3.004698
    29  H    8.527345  11.494167  10.524483   4.106425   2.845409
    30  H    7.984283  10.820851   9.671740   4.540973   3.526392
    31  Pt   3.559468   5.701717   5.717526   3.594534   4.459146
    32  Sn   3.869073   7.243577   6.070412   4.421720   4.517978
    33  Cl   3.578763   7.336678   5.650875   6.638124   6.744970
    34  Cl   6.128000   9.486246   8.430164   4.192608   3.759833
    35  Cl   4.913056   8.152045   6.354114   5.733403   5.460969
    36  C    6.604203   7.622767   8.090278   2.955177   3.805103
    37  H    6.916948   7.569554   8.427842   3.174533   4.261472
    38  H    7.562327   8.654473   9.009643   3.114674   3.672386
    39  H    6.160334   6.939416   7.365384   3.904502   4.681060
    40  C    2.970332   5.202493   5.195286   6.583219   7.369867
    41  H    3.908172   5.703192   6.122035   6.236200   7.118845
    42  H    3.142405   4.889771   4.964614   7.652589   8.460143
    43  H    3.181274   6.036393   5.521827   6.547432   7.153693
    44  Sn   5.191494   5.732309   7.010251   4.215650   5.510465
    45  Cl   5.964274   4.879405   6.994847   6.166353   7.462910
    46  Cl   7.490348   8.016456   9.349176   3.688263   5.009434
    47  Cl   5.802680   6.182094   7.690143   5.872911   7.088435
                   11         12         13         14         15
    11  C    0.000000
    12  C    1.359507   0.000000
    13  C    2.630702   3.803095   0.000000
    14  C    1.499691   2.527112   3.097552   0.000000
    15  H    8.309144   7.328724   9.394423   9.644233   0.000000
    16  H    7.173069   6.229535   8.954315   7.945694   4.734314
    17  H   10.707566   9.526605  12.326598  11.837453   3.646953
    18  H   10.128500   8.968245  11.556209  11.393872   2.547800
    19  H    9.785558   8.522733  11.557462  10.926684   3.595326
    20  H   10.279753   9.113961  12.168130  11.173157   4.981603
    21  H    9.232278   7.983069  11.329405  10.089948   5.070857
    22  H    9.200474   8.083984  11.230061   9.925113   5.583197
    23  H    3.440839   3.669677   2.855054   4.771025   6.984177
    24  H    2.179689   1.089819   4.778911   2.853957   7.520934
    25  H    2.768786   4.090990   1.100524   2.682203  10.296723
    26  H    3.445763   4.484110   1.099668   4.025090   9.641489
    27  H    3.235042   4.356719   1.105186   3.631986   9.371958
    28  H    2.157366   3.190031   3.205571   1.103906  10.436406
    29  H    2.151121   3.301772   2.914001   1.100166  10.005592
    30  H    2.154902   2.669383   4.169295   1.097423   9.721578
    31  Pt   4.429956   3.549148   5.775827   5.721831   3.942706
    32  Sn   3.968929   3.415402   5.626348   4.673016   6.045012
    33  Cl   6.288756   5.837790   7.644732   6.770571   6.473272
    34  Cl   3.538474   3.871388   4.267149   3.826418   7.881929
    35  Cl   4.290447   3.636781   6.577338   4.415806   7.668072
    36  C    3.802227   2.936176   5.154959   5.160159   6.171702
    37  H    4.584230   3.866553   5.478454   6.002719   5.878364
    38  H    3.612756   2.971038   4.896613   4.817745   7.270415
    39  H    4.408500   3.297316   6.098260   5.672191   5.863127
    40  C    7.502885   6.861686   8.352725   8.580116   3.439288
    41  H    7.468820   6.931254   8.006881   8.628077   3.456307
    42  H    8.561726   7.868466   9.450673   9.624207   3.480006
    43  H    7.214904   6.688301   8.056008   8.150918   4.466925
    44  Sn   6.036580   5.328243   6.619421   7.507672   3.224386
    45  Cl   7.818279   6.889253   8.656563   9.286631   3.038132
    46  Cl   5.973466   5.653713   5.773663   7.435449   5.543511
    47  Cl   7.806198   7.295156   7.916272   9.201973   3.332701
                   16         17         18         19         20
    16  H    0.000000
    17  H    5.023818   0.000000
    18  H    5.590171   1.788286   0.000000
    19  H    5.045891   1.766161   1.781188   0.000000
    20  H    3.704645   2.432822   3.964618   3.039286   0.000000
    21  H    3.558914   3.186251   4.176436   2.702022   1.768619
    22  H    2.569799   4.002818   5.210815   4.130377   1.790618
    23  H    7.783439  10.211858   9.198094   9.454910  10.514053
    24  H    5.940684   9.322670   8.912288   8.257581   8.710206
    25  H    9.508823  13.084778  12.381993  12.265986  12.784456
    26  H    9.690496  12.734574  11.828369  11.932013  12.764561
    27  H    8.816674  12.349969  11.641633  11.729674  12.153146
    28  H    8.962490  12.681158  12.157107  11.680392  12.089440
    29  H    8.155337  12.280324  11.883662  11.499262  11.563357
    30  H    7.583685  11.604431  11.298108  10.674315  10.754183
    31  Pt   3.951299   6.556973   5.933115   5.931439   6.563749
    32  Sn   3.481175   7.864349   7.778022   7.432223   7.029852
    33  Cl   2.809709   7.641341   8.003074   7.721213   6.413980
    34  Cl   5.701197  10.113996   9.914527   9.750033   9.347392
    35  Cl   4.255614   8.718798   8.870257   8.049614   7.420558
    36  C    7.004287   8.674494   7.646895   7.442676   8.985648
    37  H    7.445233   8.646020   7.437453   7.467033   9.239612
    38  H    7.880078   9.705174   8.693126   8.414313   9.938126
    39  H    6.590739   7.988676   7.027085   6.638509   8.261140
    40  C    3.423299   5.571448   5.446154   5.986982   5.589102
    41  H    4.427608   6.161300   5.750591   6.513253   6.496501
    42  H    3.651153   5.063241   5.138101   5.789013   5.149458
    43  H    3.275719   6.357487   6.395579   6.750414   5.998278
    44  Sn   5.952023   6.691581   5.455835   6.096617   7.597155
    45  Cl   6.927179   5.905361   4.283558   5.069509   7.394966
    46  Cl   8.140089   9.013092   7.629898   8.282425   9.981041
    47  Cl   6.590301   6.896709   5.749846   6.898753   8.027475
                   21         22         23         24         25
    21  H    0.000000
    22  H    1.784788   0.000000
    23  H    9.780242   9.937251   0.000000
    24  H    7.462116   7.573553   4.730722   0.000000
    25  H   11.869850  11.737496   3.889258   4.923905   0.000000
    26  H   11.927492  11.937579   2.730650   5.504165   1.783733
    27  H   11.455241  11.209917   3.133822   5.317004   1.780009
    28  H   10.932359  10.869504   5.126319   3.513713   2.534744
    29  H   10.606600  10.281040   4.974493   3.709462   2.413995
    30  H    9.609151   9.406360   5.583318   2.555269   3.769889
    31  Pt   5.916191   5.989498   3.975486   3.900870   6.555934
    32  Sn   6.407575   5.846621   5.137550   3.451693   6.096220
    33  Cl   6.330521   5.164483   7.184589   5.763170   8.100994
    34  Cl   8.819192   8.147798   4.823578   4.283064   4.606457
    35  Cl   6.429147   5.894896   6.692128   2.984957   6.685960
    36  C    7.828824   8.480819   3.421267   3.414983   5.762925
    37  H    8.204145   8.922288   3.281275   4.452253   6.212996
    38  H    8.697426   9.346543   3.647862   3.448595   5.354791
    39  H    6.995598   7.790263   4.429717   3.441827   6.645160
    40  C    5.976596   5.413596   6.635086   7.122039   9.193120
    41  H    6.832859   6.426694   6.116974   7.346695   8.924541
    42  H    5.849717   5.223696   7.682804   8.062414  10.290295
    43  H    6.341657   5.524883   6.690001   6.926698   8.826289
    44  Sn   7.157395   7.607751   3.942168   5.912956   7.597639
    45  Cl   6.905178   7.848021   5.938380   7.256915   9.575343
    46  Cl   9.407588   9.912391   2.947123   6.499617   6.790171
    47  Cl   8.115893   8.289602   5.357167   7.925776   8.972038
                   26         27         28         29         30
    26  H    0.000000
    27  H    1.775303   0.000000
    28  H    3.944151   3.942291   0.000000
    29  H    3.951295   3.152739   1.770288   0.000000
    30  H    5.104184   4.636136   1.783746   1.785152   0.000000
    31  Pt   6.252637   5.823200   6.562185   6.066375   5.849710
    32  Sn   6.481755   5.479138   5.737135   4.749084   4.517439
    33  Cl   8.522883   7.246945   7.871427   6.614930   6.512400
    34  Cl   5.250078   3.793775   4.867472   3.351585   4.016353
    35  Cl   7.530957   6.674560   5.385946   4.713858   3.711546
    36  C    5.246758   5.831639   5.442502   5.952668   5.464397
    37  H    5.387855   6.096626   6.259058   6.709219   6.415018
    38  H    4.920503   5.734554   4.886631   5.693250   5.172682
    39  H    6.278571   6.750003   6.007027   6.527010   5.777276
    40  C    8.851776   7.976307   9.563149   8.587525   8.654666
    41  H    8.396032   7.597776   9.558678   8.607110   8.838584
    42  H    9.940165   9.065297  10.616646   9.638447   9.650243
    43  H    8.656915   7.596004   9.179877   8.053252   8.192394
    44  Sn   6.668719   6.707883   8.131905   7.872298   7.883406
    45  Cl   8.606809   8.908836   9.810151   9.830073   9.547399
    46  Cl   5.432600   6.002400   7.787932   7.788603   8.081436
    47  Cl   7.932569   7.699126   9.910780   9.334759   9.633578
                   31         32         33         34         35
    31  Pt   0.000000
    32  Sn   2.668205   0.000000
    33  Cl   4.350454   2.434449   0.000000
    34  Cl   4.309097   2.420463   3.637774   0.000000
    35  Cl   4.467721   2.425231   3.681733   3.762962   0.000000
    36  C    3.563104   5.225631   7.499861   6.178453   5.926233
    37  H    3.803858   5.841743   8.006187   6.735377   6.832768
    38  H    4.513233   5.835351   8.204579   6.515431   6.268837
    39  H    3.611866   5.283305   7.454050   6.606453   5.733118
    40  C    3.579103   4.279440   3.784682   5.667855   6.358388
    41  H    3.632630   4.700622   4.537688   5.776297   6.952840
    42  H    4.532208   5.207905   4.372781   6.668941   7.126021
    43  H    3.780063   3.761176   2.882494   4.946069   5.848926
    44  Sn   2.648786   5.238959   6.639245   6.393319   7.084304
    45  Cl   4.428334   7.073521   8.362629   8.591810   8.530834
    46  Cl   4.359224   6.622427   8.365655   7.085394   8.367830
    47  Cl   4.228226   6.354878   7.035686   7.233650   8.553451
                   36         37         38         39         40
    36  C    0.000000
    37  H    1.099248   0.000000
    38  H    1.099514   1.792982   0.000000
    39  H    1.099693   1.798294   1.802994   0.000000
    40  C    7.048253   7.040582   8.044701   7.028929   0.000000
    41  H    6.895968   6.744924   7.885330   7.013371   1.098133
    42  H    7.945676   7.904784   8.972561   7.840797   1.098449
    43  H    7.327121   7.440386   8.251386   7.359115   1.097760
    44  Sn   3.823106   3.272693   4.836892   4.058370   4.350678
    45  Cl   4.654288   3.956949   5.629860   4.473883   5.794533
    46  Cl   3.786881   2.875411   4.406489   4.502566   6.445775
    47  Cl   6.190026   5.596141   7.159283   6.469140   3.801247
                   41         42         43         44         45
    41  H    0.000000
    42  H    1.800772   0.000000
    43  H    1.799144   1.802538   0.000000
    44  Sn   3.835119   5.091355   5.024461   0.000000
    45  Cl   5.448342   6.195809   6.687545   2.420150   0.000000
    46  Cl   5.737626   7.266084   6.960359   2.423763   3.701365
    47  Cl   2.876680   4.274258   4.610585   2.419402   3.710507
                   46         47
    46  Cl   0.000000
    47  Cl   3.721203   0.000000
 Stoichiometry    C14H22Cl6P2PtSn2
 Framework group  C1[X(C14H22Cl6P2PtSn2)]
 Deg. of freedom   135
 Full point group                 C1      NOp   1
 Largest Abelian subgroup         C1      NOp   1
 Largest concise Abelian subgroup C1      NOp   1
                         Standard orientation:                         
 ---------------------------------------------------------------------
 Center     Atomic      Atomic             Coordinates (Angstroms)
 Number     Number       Type             X           Y           Z
 ---------------------------------------------------------------------
      1         15           0        1.548757    1.779391    0.597815
      2         15           0       -1.173308   -1.739273   -1.136692
      3          6           0        3.238943    1.721139   -0.051212
      4          6           0        3.462592    2.781347   -0.863561
      5          6           0        2.312799    3.737729   -0.945973
      6          6           0        1.239965    3.371819   -0.204212
      7          6           0        4.728520    3.018643   -1.633889
      8          6           0        2.388523    4.976045   -1.788828
      9          6           0       -1.890903   -2.977635   -0.041976
     10          6           0       -3.245966   -2.915200   -0.093023
     11          6           0       -3.768229   -1.888245   -1.049514
     12          6           0       -2.797451   -1.215075   -1.722337
     13          6           0       -4.150573   -3.781778    0.736246
     14          6           0       -5.237424   -1.640858   -1.220803
     15          1           0        3.958027    0.925429    0.146340
     16          1           0        0.312342    3.935209   -0.106519
     17          1           0        5.167517    4.001122   -1.395580
     18          1           0        5.473415    2.239434   -1.424735
     19          1           0        4.531093    3.020003   -2.719096
     20          1           0        3.303462    5.554080   -1.575141
     21          1           0        2.428617    4.711303   -2.860593
     22          1           0        1.514890    5.621990   -1.627214
     23          1           0       -1.302784   -3.647501    0.583266
     24          1           0       -2.968563   -0.425645   -2.453929
     25          1           0       -5.181719   -3.812175    0.352884
     26          1           0       -3.765616   -4.811122    0.775332
     27          1           0       -4.191088   -3.407257    1.775250
     28          1           0       -5.723231   -2.486237   -1.738426
     29          1           0       -5.731617   -1.538491   -0.243225
     30          1           0       -5.421029   -0.729498   -1.803941
     31         78           0        0.138554   -0.012185   -0.131934
     32         50           0       -2.063845    1.426270    0.314839
     33         17           0       -1.811907    3.437104    1.663770
     34         17           0       -3.751950    0.359887    1.682964
     35         17           0       -3.395782    2.364081   -1.481880
     36          6           0       -0.339821   -2.604202   -2.529498
     37          1           0        0.479104   -3.225155   -2.139465
     38          1           0       -1.073821   -3.247817   -3.035398
     39          1           0        0.060966   -1.860856   -3.233864
     40          6           0        1.617037    2.022124    2.414760
     41          1           0        1.854388    1.058812    2.885495
     42          1           0        2.393235    2.761474    2.654487
     43          1           0        0.635390    2.375697    2.755980
     44         50           0        2.122462   -1.723084    0.259218
     45         17           0        4.047931   -1.794013   -1.205250
     46         17           0        1.602831   -4.088232    0.362599
     47         17           0        3.222357   -1.423448    2.393218
 ---------------------------------------------------------------------
 Rotational constants (GHZ):      0.1059159      0.0808456      0.0560324
 Leave Link  202 at Sat Jun 15 10:23:01 2019, MaxMem=13421772800 cpu:       1.7
 (Enter /home/scr/programs/g09/l301.exe)
 General basis read from cards:  (5D, 7F)
 Centers:  15 16 17 18 19 20 21 22 23 24 25 26 27 28 29 30 37 38 39 41
 Centers:  42 43
 S 5 1.00
     Exponent=  2.8295215633D+02 Coefficients=  4.3000000000D-04
     Exponent=  8.7062201949D+01 Coefficients=  5.1000000000D-04
     Exponent=  2.6788369830D+01 Coefficients=  6.1600000000D-03
     Exponent=  8.2425753324D+00 Coefficients=  1.3030000000D-02
     Exponent=  2.5361770254D+00 Coefficients=  9.9490000000D-02
 S 1 1.00
     Exponent=  7.8036216165D-01 Coefficients=  1.0000000000D+00
 S 1 1.00
     Exponent=  2.4011143435D-01 Coefficients=  1.0000000000D+00
 P 1 1.00
     Exponent=  8.8150000000D-01 Coefficients=  1.0000000000D+00
 P 1 1.00
     Exponent=  1.7989200000D-01 Coefficients=  1.0000000000D+00
 ****
 Centers:   3  4  5  6  7  8  9 10 11 12 13 14 36 40
 S 6 1.00
     Exponent=  8.8461235339D+03 Coefficients=  5.3000000000D-04
     Exponent=  2.9487078446D+03 Coefficients=  7.7000000000D-04
     Exponent=  9.8290261488D+02 Coefficients=  4.0500000000D-03
     Exponent=  3.2763420496D+02 Coefficients=  1.4030000000D-02
     Exponent=  1.0921140165D+02 Coefficients=  5.3450000000D-02
     Exponent=  3.6403800551D+01 Coefficients=  1.7027000000D-01
 S 1 1.00
     Exponent=  1.2134600184D+01 Coefficients=  1.0000000000D+00
 S 1 1.00
     Exponent=  4.0448667279D+00 Coefficients=  1.0000000000D+00
 S 1 1.00
     Exponent=  1.3482889093D+00 Coefficients=  1.0000000000D+00
 S 1 1.00
     Exponent=  4.4942963643D-01 Coefficients=  1.0000000000D+00
 S 1 1.00
     Exponent=  1.4980987881D-01 Coefficients=  1.0000000000D+00
 P 4 1.00
     Exponent=  3.7294093393D+01 Coefficients=  3.9600000000D-03
     Exponent=  1.1475105659D+01 Coefficients=  1.8890000000D-02
     Exponent=  3.5308017414D+00 Coefficients=  9.4610000000D-02
     Exponent=  1.0864005358D+00 Coefficients=  3.1889000000D-01
 P 1 1.00
     Exponent=  3.3427708794D-01 Coefficients=  1.0000000000D+00
 P 1 1.00
     Exponent=  1.0285448860D-01 Coefficients=  1.0000000000D+00
 D 1 1.00
     Exponent=  4.7750000000D-01 Coefficients=  1.0000000000D+00
 D 1 1.00
     Exponent=  1.1998000000D-01 Coefficients=  1.0000000000D+00
 ****
 Centers:   1  2
 S 7 1.00
     Exponent=  5.9538004301D+04 Coefficients=  9.5000000000D-04
     Exponent=  2.1650183382D+04 Coefficients=  6.1000000000D-04
     Exponent=  7.8727939572D+03 Coefficients=  3.7500000000D-03
     Exponent=  2.8628341663D+03 Coefficients=  9.6300000000D-03
     Exponent=  1.0410306059D+03 Coefficients=  3.2430000000D-02
     Exponent=  3.7855658397D+02 Coefficients=  9.9500000000D-02
     Exponent=  1.3765693962D+02 Coefficients=  2.6570000000D-01
 S 1 1.00
     Exponent=  5.0057068954D+01 Coefficients=  1.0000000000D+00
 S 1 1.00
     Exponent=  1.8202570529D+01 Coefficients=  1.0000000000D+00
 S 1 1.00
     Exponent=  6.6191165560D+00 Coefficients=  1.0000000000D+00
 S 1 1.00
     Exponent=  2.4069514749D+00 Coefficients=  1.0000000000D+00
 S 1 1.00
     Exponent=  8.7525508178D-01 Coefficients=  1.0000000000D+00
 S 1 1.00
     Exponent=  3.1827457519D-01 Coefficients=  1.0000000000D+00
 S 1 1.00
     Exponent=  1.1573620916D-01 Coefficients=  1.0000000000D+00
 S 1 1.00
     Exponent=  4.2085894240D-02 Coefficients=  1.0000000000D+00
 P 5 1.00
     Exponent=  4.8799672315D+02 Coefficients=  2.1600000000D-03
     Exponent=  1.6266557438D+02 Coefficients=  9.7900000000D-03
     Exponent=  5.4221858128D+01 Coefficients=  5.4850000000D-02
     Exponent=  1.8073952709D+01 Coefficients=  2.1770000000D-01
     Exponent=  6.0246509031D+00 Coefficients=  4.8978000000D-01
 P 1 1.00
     Exponent=  2.0082169677D+00 Coefficients=  1.0000000000D+00
 P 1 1.00
     Exponent=  6.6940565590D-01 Coefficients=  1.0000000000D+00
 P 1 1.00
     Exponent=  2.2313521863D-01 Coefficients=  1.0000000000D+00
 P 1 1.00
     Exponent=  7.4378406211D-02 Coefficients=  1.0000000000D+00
 P 1 1.00
     Exponent=  2.4792802070D-02 Coefficients=  1.0000000000D+00
 D 1 1.00
     Exponent=  3.5395000000D-01 Coefficients=  1.0000000000D+00
 D 1 1.00
     Exponent=  8.9098000000D-02 Coefficients=  1.0000000000D+00
 ****
 Centers:  33 34 35 45 46 47
 S 7 1.00
     Exponent=  7.7142817164D+04 Coefficients=  1.0600000000D-03
     Exponent=  2.8051933514D+04 Coefficients=  6.4000000000D-04
     Exponent=  1.0200703096D+04 Coefficients=  3.9600000000D-03
     Exponent=  3.7093465804D+03 Coefficients=  9.8300000000D-03
     Exponent=  1.3488533020D+03 Coefficients=  3.2690000000D-02
     Exponent=  4.9049210981D+02 Coefficients=  9.9520000000D-02
     Exponent=  1.7836076720D+02 Coefficients=  2.6555000000D-01
 S 1 1.00
     Exponent=  6.4858460801D+01 Coefficients=  1.0000000000D+00
 S 1 1.00
     Exponent=  2.3584894837D+01 Coefficients=  1.0000000000D+00
 S 1 1.00
     Exponent=  8.5763253951D+00 Coefficients=  1.0000000000D+00
 S 1 1.00
     Exponent=  3.1186637801D+00 Coefficients=  1.0000000000D+00
 S 1 1.00
     Exponent=  1.1340595564D+00 Coefficients=  1.0000000000D+00
 S 1 1.00
     Exponent=  4.1238529323D-01 Coefficients=  1.0000000000D+00
 S 1 1.00
     Exponent=  1.4995828845D-01 Coefficients=  1.0000000000D+00
 S 1 1.00
     Exponent=  5.4530286708D-02 Coefficients=  1.0000000000D+00
 P 5 1.00
     Exponent=  6.9498536057D+02 Coefficients=  2.0000000000D-03
     Exponent=  2.3166178686D+02 Coefficients=  8.9500000000D-03
     Exponent=  7.7220595619D+01 Coefficients=  5.1130000000D-02
     Exponent=  2.5740198540D+01 Coefficients=  2.1011000000D-01
     Exponent=  8.5800661799D+00 Coefficients=  4.9738000000D-01
 P 1 1.00
     Exponent=  2.8600220600D+00 Coefficients=  1.0000000000D+00
 P 1 1.00
     Exponent=  9.5334068665D-01 Coefficients=  1.0000000000D+00
 P 1 1.00
     Exponent=  3.1778022888D-01 Coefficients=  1.0000000000D+00
 P 1 1.00
     Exponent=  1.0592674296D-01 Coefficients=  1.0000000000D+00
 P 1 1.00
     Exponent=  3.5308914320D-02 Coefficients=  1.0000000000D+00
 D 1 1.00
     Exponent=  5.5696000000D-01 Coefficients=  1.0000000000D+00
 D 1 1.00
     Exponent=  1.5619100000D-01 Coefficients=  1.0000000000D+00
 ****
 Centers:  32 44
 S 8 1.00
     Exponent=  7.5448214551D+05 Coefficients=  4.4300000000D-03
     Exponent=  3.3532539800D+05 Coefficients=  1.9800000000D-03
     Exponent=  1.4903351022D+05 Coefficients=  9.0500000000D-03
     Exponent=  6.6237115655D+04 Coefficients=  4.8700000000D-03
     Exponent=  2.9438718069D+04 Coefficients=  2.0770000000D-02
     Exponent=  1.3083874697D+04 Coefficients=  3.2900000000D-02
     Exponent=  5.8150554210D+03 Coefficients=  7.7010000000D-02
     Exponent=  2.5844690760D+03 Coefficients=  1.5160000000D-01
 S 1 1.00
     Exponent=  1.1486529227D+03 Coefficients=  1.0000000000D+00
 S 1 1.00
     Exponent=  5.1051241008D+02 Coefficients=  1.0000000000D+00
 S 1 1.00
     Exponent=  2.2689440448D+02 Coefficients=  1.0000000000D+00
 S 1 1.00
     Exponent=  1.0084195755D+02 Coefficients=  1.0000000000D+00
 S 1 1.00
     Exponent=  4.4818647798D+01 Coefficients=  1.0000000000D+00
 S 1 1.00
     Exponent=  1.9919399021D+01 Coefficients=  1.0000000000D+00
 S 1 1.00
     Exponent=  8.8530662317D+00 Coefficients=  1.0000000000D+00
 S 1 1.00
     Exponent=  3.9346961030D+00 Coefficients=  1.0000000000D+00
 S 1 1.00
     Exponent=  1.7487538235D+00 Coefficients=  1.0000000000D+00
 S 1 1.00
     Exponent=  7.7722392158D-01 Coefficients=  1.0000000000D+00
 S 1 1.00
     Exponent=  3.4543285403D-01 Coefficients=  1.0000000000D+00
 S 1 1.00
     Exponent=  1.5352571290D-01 Coefficients=  1.0000000000D+00
 S 1 1.00
     Exponent=  6.8233650180D-02 Coefficients=  1.0000000000D+00
 S 1 1.00
     Exponent=  1.3478251887D-02 Coefficients=  1.0000000000D+00
 P 5 1.00
     Exponent=  1.0090658304D+04 Coefficients=  2.7500000000D-03
     Exponent=  4.0362633217D+03 Coefficients=  4.1800000000D-03
     Exponent=  1.6145053287D+03 Coefficients=  2.0890000000D-02
     Exponent=  6.4580213147D+02 Coefficients=  7.1370000000D-02
     Exponent=  2.5832085259D+02 Coefficients=  2.2613000000D-01
 P 1 1.00
     Exponent=  1.0332834104D+02 Coefficients=  1.0000000000D+00
 P 1 1.00
     Exponent=  4.1331336414D+01 Coefficients=  1.0000000000D+00
 P 1 1.00
     Exponent=  1.6532534566D+01 Coefficients=  1.0000000000D+00
 P 1 1.00
     Exponent=  6.6130138263D+00 Coefficients=  1.0000000000D+00
 P 1 1.00
     Exponent=  2.6452055305D+00 Coefficients=  1.0000000000D+00
 P 1 1.00
     Exponent=  1.0580822122D+00 Coefficients=  1.0000000000D+00
 P 1 1.00
     Exponent=  4.2323288488D-01 Coefficients=  1.0000000000D+00
 P 1 1.00
     Exponent=  1.6929315395D-01 Coefficients=  1.0000000000D+00
 P 1 1.00
     Exponent=  6.7717261581D-02 Coefficients=  1.0000000000D+00
 P 1 1.00
     Exponent=  2.7086904632D-02 Coefficients=  1.0000000000D+00
 P 1 1.00
     Exponent=  1.0834761853D-02 Coefficients=  1.0000000000D+00
 D 4 1.00
     Exponent=  5.5430250651D+02 Coefficients=  4.3700000000D-03
     Exponent=  2.0156454782D+02 Coefficients=  2.5110000000D-02
     Exponent=  7.3296199207D+01 Coefficients=  1.3316000000D-01
     Exponent=  2.6653163348D+01 Coefficients=  3.8900000000D-01
 D 1 1.00
     Exponent=  9.6920593993D+00 Coefficients=  1.0000000000D+00
 D 1 1.00
     Exponent=  3.5243852361D+00 Coefficients=  1.0000000000D+00
 D 1 1.00
     Exponent=  1.2815946313D+00 Coefficients=  1.0000000000D+00
 D 1 1.00
     Exponent=  4.6603441139D-01 Coefficients=  1.0000000000D+00
 D 1 1.00
     Exponent=  1.6946705869D-01 Coefficients=  1.0000000000D+00
 F 1 1.00
     Exponent=  1.3140000000D+00 Coefficients=  1.0000000000D+00
 F 1 1.00
     Exponent=  1.9993000000D-01 Coefficients=  1.0000000000D+00
 ****
 Centers:  31
 S 9 1.00
     Exponent=  2.1644816090D+06 Coefficients=  1.2320000000D-02
     Exponent=  1.0822408045D+06 Coefficients=  1.2970000000D-02
     Exponent=  5.4112040224D+05 Coefficients=  2.6370000000D-02
     Exponent=  2.7056020112D+05 Coefficients=  9.0400000000D-03
     Exponent=  1.3528010056D+05 Coefficients=  3.4980000000D-02
     Exponent=  6.7640050280D+04 Coefficients=  1.2220000000D-02
     Exponent=  3.3820025140D+04 Coefficients=  6.0520000000D-02
     Exponent=  1.6910012570D+04 Coefficients=  6.4930000000D-02
     Exponent=  8.4550062850D+03 Coefficients=  1.3819000000D-01
 S 1 1.00
     Exponent=  4.2275031425D+03 Coefficients=  1.0000000000D+00
 S 1 1.00
     Exponent=  2.1137515713D+03 Coefficients=  1.0000000000D+00
 S 1 1.00
     Exponent=  1.0568757856D+03 Coefficients=  1.0000000000D+00
 S 1 1.00
     Exponent=  5.2843789281D+02 Coefficients=  1.0000000000D+00
 S 1 1.00
     Exponent=  2.6421894641D+02 Coefficients=  1.0000000000D+00
 S 1 1.00
     Exponent=  1.3210947320D+02 Coefficients=  1.0000000000D+00
 S 1 1.00
     Exponent=  6.6054736602D+01 Coefficients=  1.0000000000D+00
 S 1 1.00
     Exponent=  3.3027368301D+01 Coefficients=  1.0000000000D+00
 S 1 1.00
     Exponent=  1.6513684150D+01 Coefficients=  1.0000000000D+00
 S 1 1.00
     Exponent=  8.2568420752D+00 Coefficients=  1.0000000000D+00
 S 1 1.00
     Exponent=  4.1284210376D+00 Coefficients=  1.0000000000D+00
 S 1 1.00
     Exponent=  2.0642105188D+00 Coefficients=  1.0000000000D+00
 S 1 1.00
     Exponent=  1.0321052594D+00 Coefficients=  1.0000000000D+00
 S 1 1.00
     Exponent=  5.1605262970D-01 Coefficients=  1.0000000000D+00
 S 1 1.00
     Exponent=  2.5802631485D-01 Coefficients=  1.0000000000D+00
 S 1 1.00
     Exponent=  1.2901315743D-01 Coefficients=  1.0000000000D+00
 S 1 1.00
     Exponent=  6.4506578713D-02 Coefficients=  1.0000000000D+00
 P 7 1.00
     Exponent=  3.2357915258D+04 Coefficients=  5.0200000000D-03
     Exponent=  1.4381295670D+04 Coefficients=  2.0200000000D-03
     Exponent=  6.3916869645D+03 Coefficients=  1.8070000000D-02
     Exponent=  2.8407497620D+03 Coefficients=  3.6620000000D-02
     Exponent=  1.2625554498D+03 Coefficients=  1.1172000000D-01
     Exponent=  5.6113575545D+02 Coefficients=  2.5586000000D-01
     Exponent=  2.4939366909D+02 Coefficients=  4.2608000000D-01
 P 1 1.00
     Exponent=  1.1084163071D+02 Coefficients=  1.0000000000D+00
 P 1 1.00
     Exponent=  4.9262946981D+01 Coefficients=  1.0000000000D+00
 P 1 1.00
     Exponent=  2.1894643103D+01 Coefficients=  1.0000000000D+00
 P 1 1.00
     Exponent=  9.7309524900D+00 Coefficients=  1.0000000000D+00
 P 1 1.00
     Exponent=  4.3248677733D+00 Coefficients=  1.0000000000D+00
 P 1 1.00
     Exponent=  1.9221634548D+00 Coefficients=  1.0000000000D+00
 P 1 1.00
     Exponent=  8.5429486881D-01 Coefficients=  1.0000000000D+00
 P 1 1.00
     Exponent=  3.7968660836D-01 Coefficients=  1.0000000000D+00
 P 1 1.00
     Exponent=  1.6874960372D-01 Coefficients=  1.0000000000D+00
 P 1 1.00
     Exponent=  7.4999823874D-02 Coefficients=  1.0000000000D+00
 P 1 1.00
     Exponent=  3.3333255055D-02 Coefficients=  1.0000000000D+00
 D 5 1.00
     Exponent=  1.9119003508D+03 Coefficients=  4.3300000000D-03
     Exponent=  7.6476014031D+02 Coefficients=  1.7780000000D-02
     Exponent=  3.0590405613D+02 Coefficients=  8.9710000000D-02
     Exponent=  1.2236162245D+02 Coefficients=  3.1123000000D-01
     Exponent=  4.8944648980D+01 Coefficients=  5.3206000000D-01
 D 1 1.00
     Exponent=  1.9577859592D+01 Coefficients=  1.0000000000D+00
 D 1 1.00
     Exponent=  7.8311438368D+00 Coefficients=  1.0000000000D+00
 D 1 1.00
     Exponent=  3.1324575347D+00 Coefficients=  1.0000000000D+00
 D 1 1.00
     Exponent=  1.2529830139D+00 Coefficients=  1.0000000000D+00
 D 1 1.00
     Exponent=  5.0119320556D-01 Coefficients=  1.0000000000D+00
 D 1 1.00
     Exponent=  2.0047728222D-01 Coefficients=  1.0000000000D+00
 D 1 1.00
     Exponent=  8.0190912889D-02 Coefficients=  1.0000000000D+00
 D 1 1.00
     Exponent=  3.2076365156D-02 Coefficients=  1.0000000000D+00
 F 4 1.00
     Exponent=  8.2289680979D+01 Coefficients=  6.1870000000D-02
     Exponent=  2.9923520356D+01 Coefficients=  2.4823000000D-01
     Exponent=  1.0881280130D+01 Coefficients=  4.9956000000D-01
     Exponent=  3.9568291380D+00 Coefficients=  4.0380000000D-01
 F 1 1.00
     Exponent=  1.4388469593D+00 Coefficients=  1.0000000000D+00
 F 1 1.00
     Exponent=  5.2321707610D-01 Coefficients=  1.0000000000D+00
 G 1 1.00
     Exponent=  2.6700000000D+00 Coefficients=  1.0000000000D+00
 G 1 1.00
     Exponent=  9.0960000000D-01 Coefficients=  1.0000000000D+00
 ****
 Ernie: Thresh=  0.10000D-02 Tol=  0.10000D-05 Strict=F.
 There are  1172 symmetry adapted basis functions of A   symmetry.
 Integral buffers will be    131072 words long.
 Raffenetti 2 integral format.
 Two-electron integral symmetry is turned on.
  1172 basis functions,  1852 primitive gaussians,  1270 cartesian basis functions
   208 alpha electrons      208 beta electrons
       nuclear repulsion energy     10292.8492380417 Hartrees.
 IExCor= 1009 DFT=T Ex=PBE Corr=PBE ExCW=0 ScaHFX=  0.000000
 ScaDFX=  1.000000  1.000000  1.000000  1.000000 ScalE2=  1.000000  1.000000
 IRadAn=      0 IRanWt=     -1 IRanGd=            0 ICorTp=0
 NAtoms=   47 NActive=   47 NUniq=   47 SFac= 7.50D-01 NAtFMM=   80 NAOKFM=F Big=F
 ------------------------------------------------------------------------------
 Polarizable Continuum Model (PCM)
 =================================
 Model                : PCM.
 Atomic radii         : UFF (Universal Force Field).
 Polarization charges : Total charges.
 Charge compensation  : None.
 Solution method      : Matrix inversion.
 Cavity type          : Scaled VdW (van der Waals Surface) (Alpha=1.100).
 Cavity algorithm     : GePol (No added spheres)
                        Default sphere list used, NSphG=   47.
                        Lebedev-Laikov grids with approx.  5.0 points / Ang**2.
                        Smoothing algorithm: Karplus/York (Gamma=1.0000).
                        Polarization charges: spherical gaussians, with
                                              point-specific exponents (IZeta= 3).
                        Self-potential: point-specific (ISelfS= 7).
                        Self-field    : sphere-specific E.n sum rule (ISelfD= 2).
 Solvent              : Dichloromethane, Eps=   8.930000 Eps(inf)=   2.028346
 ------------------------------------------------------------------------------
 GePol: Number of generator spheres                  =      47
 GePol: Total number of spheres                      =      47
 GePol: Number of exposed spheres                    =      47 (100.00%)
 GePol: Number of points                             =    3984
 GePol: Average weight of points                     =       0.14
 GePol: Minimum weight of points                     =   0.37D-11
 GePol: Maximum weight of points                     =    0.21838
 GePol: Number of points with low weight             =     232
 GePol: Fraction of low-weight points (<1% of avg)   =       5.82%
 GePol: Cavity surface area                          =    572.875 Ang**2
 GePol: Cavity volume                                =    667.841 Ang**3
 Leave Link  301 at Sat Jun 15 10:23:01 2019, MaxMem=13421772800 cpu:       4.0
 (Enter /home/scr/programs/g09/l302.exe)
 NPDir=0 NMtPBC=     1 NCelOv=     1 NCel=       1 NClECP=     1 NCelD=      1
         NCelK=      1 NCelE2=     1 NClLst=     1 CellRange=     0.0.
 One-electron integrals computed using PRISM.
 NBasis=  1172 RedAO= T  NBF=  1172
 NBsUse=  1172 1.00D-06 NBFU=  1172
 Precomputing XC quadrature grid using
 IXCGrd= 2 IRadAn=           0 IRanWt=          -1 IRanGd=           0 AccXCQ= 1.00D-10.
 Defaulting to unpruned grid for atomic number  78.
 Defaulting to unpruned grid for atomic number  50.
 NRdTot=    3107 NPtTot=      430472 NUsed=      452845 NTot=      452877
 NSgBfM=  1108  1108  1108  1108  1108 NAtAll=    47    47.
 Leave Link  302 at Sat Jun 15 10:23:10 2019, MaxMem=13421772800 cpu:     267.3
 (Enter /home/scr/programs/g09/l308.exe)
 Leave Link  308 at Sat Jun 15 10:23:12 2019, MaxMem=13421772800 cpu:      67.5
 (Enter /home/scr/programs/g09/l303.exe)
 DipDrv:  MaxL=1.
 Leave Link  303 at Sat Jun 15 10:23:13 2019, MaxMem=13421772800 cpu:      33.2
 (Enter /home/scr/programs/g09/l401.exe)
 Harris functional with IExCor= 1009 diagonalized for initial guess.
 ExpMin= 1.08D-02 ExpMax= 2.16D+06 ExpMxC= 2.16D+06 IAcc=4 IRadAn=         0 AccDes= 0.00D+00
 HarFok:  IExCor= 1009 AccDes= 0.00D+00 IRadAn=         0 IDoV= 1
 ScaDFX=  1.000000  1.000000  1.000000  1.000000
 Defaulting to unpruned grid for atomic number  78.
 Defaulting to unpruned grid for atomic number  78.
 Defaulting to unpruned grid for atomic number  78.
 Defaulting to unpruned grid for atomic number  78.
 Defaulting to unpruned grid for atomic number  78.
 Defaulting to unpruned grid for atomic number  78.
 Defaulting to unpruned grid for atomic number  78.
 Defaulting to unpruned grid for atomic number  78.
 Defaulting to unpruned grid for atomic number  78.
 Defaulting to unpruned grid for atomic number  78.
 Defaulting to unpruned grid for atomic number  78.
 Defaulting to unpruned grid for atomic number  78.
 Defaulting to unpruned grid for atomic number  78.
 Defaulting to unpruned grid for atomic number  78.
 Defaulting to unpruned grid for atomic number  78.
 Defaulting to unpruned grid for atomic number  78.
 Defaulting to unpruned grid for atomic number  78.
 Defaulting to unpruned grid for atomic number  78.
 Defaulting to unpruned grid for atomic number  78.
 Defaulting to unpruned grid for atomic number  78.
 Defaulting to unpruned grid for atomic number  78.
 Defaulting to unpruned grid for atomic number  78.
 Defaulting to unpruned grid for atomic number  78.
 Defaulting to unpruned grid for atomic number  78.
 Defaulting to unpruned grid for atomic number  78.
 Defaulting to unpruned grid for atomic number  78.
 Defaulting to unpruned grid for atomic number  78.
 Defaulting to unpruned grid for atomic number  78.
 Defaulting to unpruned grid for atomic number  78.
 Defaulting to unpruned grid for atomic number  78.
 Defaulting to unpruned grid for atomic number  78.
 Defaulting to unpruned grid for atomic number  78.
 FoFCou: FMM=F IPFlag=           0 FMFlag=      100000 FMFlg1=           0
         NFxFlg=           0 DoJE=T BraDBF=F KetDBF=T FulRan=T
         Omega=  0.000000  0.000000  1.000000  0.000000  0.000000 ICntrl=     500 IOpCl=  0
         NMat0=    1 NMatS0=    1 NMatT0=    0 NMatD0=    1 NMtDS0=    0 NMtDT0=    0
         I1Cent=           4 NGrid=           0.
 Petite list used in FoFCou.
 Harris En= -33076.7400146322    
 Initial guess orbital symmetries:
       Occupied  (A) (A) (A) (A) (A) (A) (A) (A) (A) (A) (A) (A)
                 (A) (A) (A) (A) (A) (A) (A) (A) (A) (A) (A) (A)
                 (A) (A) (A) (A) (A) (A) (A) (A) (A) (A) (A) (A)
                 (A) (A) (A) (A) (A) (A) (A) (A) (A) (A) (A) (A)
                 (A) (A) (A) (A) (A) (A) (A) (A) (A) (A) (A) (A)
                 (A) (A) (A) (A) (A) (A) (A) (A) (A) (A) (A) (A)
                 (A) (A) (A) (A) (A) (A) (A) (A) (A) (A) (A) (A)
                 (A) (A) (A) (A) (A) (A) (A) (A) (A) (A) (A) (A)
                 (A) (A) (A) (A) (A) (A) (A) (A) (A) (A) (A) (A)
                 (A) (A) (A) (A) (A) (A) (A) (A) (A) (A) (A) (A)
                 (A) (A) (A) (A) (A) (A) (A) (A) (A) (A) (A) (A)
                 (A) (A) (A) (A) (A) (A) (A) (A) (A) (A) (A) (A)
                 (A) (A) (A) (A) (A) (A) (A) (A) (A) (A) (A) (A)
                 (A) (A) (A) (A) (A) (A) (A) (A) (A) (A) (A) (A)
                 (A) (A) (A) (A) (A) (A) (A) (A) (A) (A) (A) (A)
                 (A) (A) (A) (A) (A) (A) (A) (A) (A) (A) (A) (A)
                 (A) (A) (A) (A) (A) (A) (A) (A) (A) (A) (A) (A)
                 (A) (A) (A) (A)
       Virtual   (A) (A) (A) (A) (A) (A) (A) (A) (A) (A) (A) (A)
                 (A) (A) (A) (A) (A) (A) (A) (A) (A) (A) (A) (A)
                 (A) (A) (A) (A) (A) (A) (A) (A) (A) (A) (A) (A)
                 (A) (A) (A) (A) (A) (A) (A) (A) (A) (A) (A) (A)
                 (A) (A) (A) (A) (A) (A) (A) (A) (A) (A) (A) (A)
                 (A) (A) (A) (A) (A) (A) (A) (A) (A) (A) (A) (A)
                 (A) (A) (A) (A) (A) (A) (A) (A) (A) (A) (A) (A)
                 (A) (A) (A) (A) (A) (A) (A) (A) (A) (A) (A) (A)
                 (A) (A) (A) (A) (A) (A) (A) (A) (A) (A) (A) (A)
                 (A) (A) (A) (A) (A) (A) (A) (A) (A) (A) (A) (A)
                 (A) (A) (A) (A) (A) (A) (A) (A) (A) (A) (A) (A)
                 (A) (A) (A) (A) (A) (A) (A) (A) (A) (A) (A) (A)
                 (A) (A) (A) (A) (A) (A) (A) (A) (A) (A) (A) (A)
                 (A) (A) (A) (A) (A) (A) (A) (A) (A) (A) (A) (A)
                 (A) (A) (A) (A) (A) (A) (A) (A) (A) (A) (A) (A)
                 (A) (A) (A) (A) (A) (A) (A) (A) (A) (A) (A) (A)
                 (A) (A) (A) (A) (A) (A) (A) (A) (A) (A) (A) (A)
                 (A) (A) (A) (A) (A) (A) (A) (A) (A) (A) (A) (A)
                 (A) (A) (A) (A) (A) (A) (A) (A) (A) (A) (A) (A)
                 (A) (A) (A) (A) (A) (A) (A) (A) (A) (A) (A) (A)
                 (A) (A) (A) (A) (A) (A) (A) (A) (A) (A) (A) (A)
                 (A) (A) (A) (A) (A) (A) (A) (A) (A) (A) (A) (A)
                 (A) (A) (A) (A) (A) (A) (A) (A) (A) (A) (A) (A)
                 (A) (A) (A) (A) (A) (A) (A) (A) (A) (A) (A) (A)
                 (A) (A) (A) (A) (A) (A) (A) (A) (A) (A) (A) (A)
                 (A) (A) (A) (A) (A) (A) (A) (A) (A) (A) (A) (A)
                 (A) (A) (A) (A) (A) (A) (A) (A) (A) (A) (A) (A)
                 (A) (A) (A) (A) (A) (A) (A) (A) (A) (A) (A) (A)
                 (A) (A) (A) (A) (A) (A) (A) (A) (A) (A) (A) (A)
                 (A) (A) (A) (A) (A) (A) (A) (A) (A) (A) (A) (A)
                 (A) (A) (A) (A) (A) (A) (A) (A) (A) (A) (A) (A)
                 (A) (A) (A) (A) (A) (A) (A) (A) (A) (A) (A) (A)
                 (A) (A) (A) (A) (A) (A) (A) (A) (A) (A) (A) (A)
                 (A) (A) (A) (A) (A) (A) (A) (A) (A) (A) (A) (A)
                 (A) (A) (A) (A) (A) (A) (A) (A) (A) (A) (A) (A)
                 (A) (A) (A) (A) (A) (A) (A) (A) (A) (A) (A) (A)
                 (A) (A) (A) (A) (A) (A) (A) (A) (A) (A) (A) (A)
                 (A) (A) (A) (A) (A) (A) (A) (A) (A) (A) (A) (A)
                 (A) (A) (A) (A) (A) (A) (A) (A) (A) (A) (A) (A)
                 (A) (A) (A) (A) (A) (A) (A) (A) (A) (A) (A) (A)
                 (A) (A) (A) (A) (A) (A) (A) (A) (A) (A) (A) (A)
                 (A) (A) (A) (A) (A) (A) (A) (A) (A) (A) (A) (A)
                 (A) (A) (A) (A) (A) (A) (A) (A) (A) (A) (A) (A)
                 (A) (A) (A) (A) (A) (A) (A) (A) (A) (A) (A) (A)
                 (A) (A) (A) (A) (A) (A) (A) (A) (A) (A) (A) (A)
                 (A) (A) (A) (A) (A) (A) (A) (A) (A) (A) (A) (A)
                 (A) (A) (A) (A) (A) (A) (A) (A) (A) (A) (A) (A)
                 (A) (A) (A) (A) (A) (A) (A) (A) (A) (A) (A) (A)
                 (A) (A) (A) (A) (A) (A) (A) (A) (A) (A) (A) (A)
                 (A) (A) (A) (A) (A) (A) (A) (A) (A) (A) (A) (A)
                 (A) (A) (A) (A) (A) (A) (A) (A) (A) (A) (A) (A)
                 (A) (A) (A) (A) (A) (A) (A) (A) (A) (A) (A) (A)
                 (A) (A) (A) (A) (A) (A) (A) (A) (A) (A) (A) (A)
                 (A) (A) (A) (A) (A) (A) (A) (A) (A) (A) (A) (A)
                 (A) (A) (A) (A) (A) (A) (A) (A) (A) (A) (A) (A)
                 (A) (A) (A) (A) (A) (A) (A) (A) (A) (A) (A) (A)
                 (A) (A) (A) (A) (A) (A) (A) (A) (A) (A) (A) (A)
                 (A) (A) (A) (A) (A) (A) (A) (A) (A) (A) (A) (A)
                 (A) (A) (A) (A) (A) (A) (A) (A) (A) (A) (A) (A)
                 (A) (A) (A) (A) (A) (A) (A) (A) (A) (A) (A) (A)
                 (A) (A) (A) (A) (A) (A) (A) (A) (A) (A) (A) (A)
                 (A) (A) (A) (A) (A) (A) (A) (A) (A) (A) (A) (A)
                 (A) (A) (A) (A) (A) (A) (A) (A) (A) (A) (A) (A)
                 (A) (A) (A) (A) (A) (A) (A) (A) (A) (A) (A) (A)
                 (A) (A) (A) (A) (A) (A) (A) (A) (A) (A) (A) (A)
                 (A) (A) (A) (A) (A) (A) (A) (A) (A) (A) (A) (A)
                 (A) (A) (A) (A) (A) (A) (A) (A) (A) (A) (A) (A)
                 (A) (A) (A) (A) (A) (A) (A) (A) (A) (A) (A) (A)
                 (A) (A) (A) (A) (A) (A) (A) (A) (A) (A) (A) (A)
                 (A) (A) (A) (A) (A) (A) (A) (A) (A) (A) (A) (A)
                 (A) (A) (A) (A) (A) (A) (A) (A) (A) (A) (A) (A)
                 (A) (A) (A) (A) (A) (A) (A) (A) (A) (A) (A) (A)
                 (A) (A) (A) (A) (A) (A) (A) (A) (A) (A) (A) (A)
                 (A) (A) (A) (A) (A) (A) (A) (A) (A) (A) (A) (A)
                 (A) (A) (A) (A) (A) (A) (A) (A) (A) (A) (A) (A)
                 (A) (A) (A) (A) (A) (A) (A) (A) (A) (A) (A) (A)
                 (A) (A) (A) (A) (A) (A) (A) (A) (A) (A) (A) (A)
                 (A) (A) (A) (A) (A) (A) (A) (A) (A) (A) (A) (A)
                 (A) (A) (A) (A) (A) (A) (A) (A) (A) (A) (A) (A)
                 (A) (A) (A) (A) (A) (A) (A) (A) (A) (A) (A) (A)
                 (A) (A) (A) (A)
 The electronic state of the initial guess is 1-A.
 Leave Link  401 at Sat Jun 15 10:23:25 2019, MaxMem=13421772800 cpu:     360.1
 (Enter /home/scr/programs/g09/l502.exe)
 Closed shell SCF:
 Requested convergence on RMS density matrix=1.00D-04 within 500 cycles.
 Requested convergence on MAX density matrix=1.00D-02.
 Requested convergence on             energy=1.00D-02.
 No special actions if energy rises.
 Using DIIS extrapolation, IDIIS=  1040.
 Integral symmetry usage will be decided dynamically.
       452409 words used for storage of precomputed grid.
 IEnd=     5594771 IEndB=     5594771 NGot= 13421772800 MDV= 13418043200
 LenX= 13418043200 LenY= 13416429030
 Fock matrices will be formed incrementally for  20 cycles.

 Cycle   1  Pass 1  IDiag  1:
 FoFCou: FMM=F IPFlag=           0 FMFlag=      100000 FMFlg1=           0
         NFxFlg=           0 DoJE=T BraDBF=F KetDBF=F FulRan=T
         Omega=  0.000000  0.000000  1.000000  0.000000  0.000000 ICntrl=     500 IOpCl=  0
         NMat0=    1 NMatS0=    1 NMatT0=    0 NMatD0=    1 NMtDS0=    0 NMtDT0=    0
         I1Cent=           0 NGrid=           0.
 Symmetry not used in FoFCou.
 Defaulting to unpruned grid for atomic number  78.
 Defaulting to unpruned grid for atomic number  78.
 Defaulting to unpruned grid for atomic number  78.
 Defaulting to unpruned grid for atomic number  78.
 Defaulting to unpruned grid for atomic number  78.
 Defaulting to unpruned grid for atomic number  78.
 Defaulting to unpruned grid for atomic number  78.
 Defaulting to unpruned grid for atomic number  78.
 Defaulting to unpruned grid for atomic number  78.
 Defaulting to unpruned grid for atomic number  78.
 Defaulting to unpruned grid for atomic number  78.
 Defaulting to unpruned grid for atomic number  78.
 Defaulting to unpruned grid for atomic number  78.
 Defaulting to unpruned grid for atomic number  78.
 Defaulting to unpruned grid for atomic number  78.
 Defaulting to unpruned grid for atomic number  78.
 Defaulting to unpruned grid for atomic number  78.
 Defaulting to unpruned grid for atomic number  78.
 Defaulting to unpruned grid for atomic number  78.
 Defaulting to unpruned grid for atomic number  78.
 Defaulting to unpruned grid for atomic number  78.
 Defaulting to unpruned grid for atomic number  78.
 Defaulting to unpruned grid for atomic number  78.
 Defaulting to unpruned grid for atomic number  78.
 Defaulting to unpruned grid for atomic number  78.
 Defaulting to unpruned grid for atomic number  78.
 Defaulting to unpruned grid for atomic number  78.
 Defaulting to unpruned grid for atomic number  78.
 Defaulting to unpruned grid for atomic number  78.
 Defaulting to unpruned grid for atomic number  78.
 Defaulting to unpruned grid for atomic number  78.
 Defaulting to unpruned grid for atomic number  78.
 E= -33054.7807729167    
 DIIS: error= 2.37D-01 at cycle   1 NSaved=   1.
 NSaved= 1 IEnMin= 1 EnMin= -33054.7807729167     IErMin= 1 ErrMin= 2.37D-01
 ErrMax= 2.37D-01 EMaxC= 1.00D-01 BMatC= 3.65D+02 BMatP= 3.65D+02
 IDIUse=3 WtCom= 0.00D+00 WtEn= 1.00D+00
 Coeff-Com:  0.100D+01
 Coeff-En:   0.100D+01
 Coeff:      0.100D+01
 Gap=     0.617 Goal=   None    Shift=    0.000
 GapD=    0.617 DampG=2.000 DampE=0.125 DampFc=0.2500 IDamp=-1.
 Damping current iteration by 2.50D-01
 RMSDP=6.48D-03 MaxDP=9.44D-01              OVMax= 6.48D-01

 Cycle   2  Pass 1  IDiag  1:
 RMSU=  1.14D-03    CP:  1.01D+00
 E= -33056.5137167114     Delta-E=       -1.732943794705 Rises=F Damp=T
 DIIS: error= 1.71D-01 at cycle   2 NSaved=   2.
 NSaved= 2 IEnMin= 2 EnMin= -33056.5137167114     IErMin= 2 ErrMin= 1.71D-01
 ErrMax= 1.71D-01 EMaxC= 1.00D-01 BMatC= 1.78D+02 BMatP= 3.65D+02
 IDIUse=3 WtCom= 0.00D+00 WtEn= 1.00D+00
 Coeff-Com: -0.207D+01 0.307D+01
 Coeff-En:   0.000D+00 0.100D+01
 Coeff:      0.000D+00 0.100D+01
 Gap=     0.096 Goal=   None    Shift=    0.000
 RMSDP=2.20D-03 MaxDP=1.99D-01 DE=-1.73D+00 OVMax= 9.23D-01

 Cycle   3  Pass 1  IDiag  1:
 RMSU=  1.53D-03    CP:  9.75D-01  9.32D-01
 E= -33058.7380028355     Delta-E=       -2.224286124052 Rises=F Damp=F
 DIIS: error= 4.13D-02 at cycle   3 NSaved=   3.
 NSaved= 3 IEnMin= 3 EnMin= -33058.7380028355     IErMin= 3 ErrMin= 4.13D-02
 ErrMax= 4.13D-02 EMaxC= 1.00D-01 BMatC= 9.61D+00 BMatP= 1.78D+02
 IDIUse=3 WtCom= 5.87D-01 WtEn= 4.13D-01
 Coeff-Com:  0.123D+01-0.156D+01 0.132D+01
 Coeff-En:   0.137D+00 0.000D+00 0.863D+00
 Coeff:      0.779D+00-0.913D+00 0.113D+01
 Gap=     0.156 Goal=   None    Shift=    0.000
 RMSDP=4.39D-03 MaxDP=5.62D-01 DE=-2.22D+00 OVMax= 7.74D-01

 Cycle   4  Pass 1  IDiag  1:
 RMSU=  2.47D-03    CP:  1.00D+00  1.97D+00  6.38D-02
 E= -33054.0468327003     Delta-E=        4.691170135229 Rises=F Damp=F
 DIIS: error= 3.87D-02 at cycle   4 NSaved=   4.
 NSaved= 4 IEnMin= 3 EnMin= -33058.7380028355     IErMin= 4 ErrMin= 3.87D-02
 ErrMax= 3.87D-02 EMaxC= 1.00D-01 BMatC= 4.70D+00 BMatP= 9.61D+00
 IDIUse=3 WtCom= 6.13D-01 WtEn= 3.87D-01
 EnCoef did     5 forward-backward iterations
 Coeff-Com:  0.801D+00-0.103D+01 0.849D+00 0.378D+00
 Coeff-En:   0.117D+00 0.000D+00 0.815D+00 0.686D-01
 Coeff:      0.536D+00-0.630D+00 0.835D+00 0.259D+00
 Gap=     0.074 Goal=   None    Shift=    0.000
 RMSDP=4.10D-03 MaxDP=5.34D-01 DE= 4.69D+00 OVMax= 7.88D-01

 Cycle   5  Pass 1  IDiag  1:
 RMSU=  5.76D-04    CP:  9.72D-01  6.40D-01  6.73D-01  1.11D-01
 E= -33059.3742762595     Delta-E=       -5.327443559276 Rises=F Damp=F
 DIIS: error= 1.74D-02 at cycle   5 NSaved=   5.
 NSaved= 5 IEnMin= 5 EnMin= -33059.3742762595     IErMin= 5 ErrMin= 1.74D-02
 ErrMax= 1.74D-02 EMaxC= 1.00D-01 BMatC= 1.10D+00 BMatP= 4.70D+00
 IDIUse=3 WtCom= 8.26D-01 WtEn= 1.74D-01
 EnCoef did   100 forward-backward iterations
 Coeff-Com: -0.291D+00 0.404D+00 0.607D-01 0.527D-01 0.773D+00
 Coeff-En:   0.000D+00 0.000D+00 0.316D+00 0.420D-02 0.680D+00
 Coeff:     -0.240D+00 0.334D+00 0.105D+00 0.443D-01 0.757D+00
 Gap=     0.176 Goal=   None    Shift=    0.000
 RMSDP=1.09D-03 MaxDP=1.28D-01 DE=-5.33D+00 OVMax= 2.19D-01

 Cycle   6  Pass 1  IDiag  1:
 RMSU=  4.66D-04    CP:  9.69D-01  7.97D-01  8.15D-01  8.92D-02  6.49D-02
 E= -33059.5635529070     Delta-E=       -0.189276647478 Rises=F Damp=F
 DIIS: error= 8.45D-03 at cycle   6 NSaved=   6.
 NSaved= 6 IEnMin= 6 EnMin= -33059.5635529070     IErMin= 6 ErrMin= 8.45D-03
 ErrMax= 8.45D-03 EMaxC= 1.00D-01 BMatC= 3.97D-01 BMatP= 1.10D+00
 IDIUse=3 WtCom= 9.15D-01 WtEn= 8.45D-02
 Coeff-Com: -0.191D+00 0.259D+00-0.129D-01 0.244D-01 0.541D+00 0.380D+00
 Coeff-En:   0.000D+00 0.000D+00 0.000D+00 0.000D+00 0.402D+00 0.598D+00
 Coeff:     -0.175D+00 0.237D+00-0.118D-01 0.224D-01 0.529D+00 0.398D+00
 Gap=     0.077 Goal=   None    Shift=    0.000
 RMSDP=6.06D-04 MaxDP=1.00D-01 DE=-1.89D-01 OVMax= 1.12D-01

 Cycle   7  Pass 1  IDiag  1:
 RMSU=  1.75D-04    CP:  9.74D-01  7.56D-01  7.73D-01  1.15D-01  4.81D-01
                    CP:  3.82D-01
 E= -33059.8276398649     Delta-E=       -0.264086957912 Rises=F Damp=F
 DIIS: error= 1.21D-03 at cycle   7 NSaved=   7.
 NSaved= 7 IEnMin= 7 EnMin= -33059.8276398649     IErMin= 7 ErrMin= 1.21D-03
 ErrMax= 1.21D-03 EMaxC= 1.00D-01 BMatC= 9.51D-03 BMatP= 3.97D-01
 IDIUse=3 WtCom= 9.88D-01 WtEn= 1.21D-02
 Coeff-Com: -0.944D-01 0.126D+00-0.288D-01 0.853D-02 0.213D+00 0.175D+00
 Coeff-Com:  0.601D+00
 Coeff-En:   0.000D+00 0.000D+00 0.000D+00 0.000D+00 0.000D+00 0.000D+00
 Coeff-En:   0.100D+01
 Coeff:     -0.933D-01 0.125D+00-0.285D-01 0.843D-02 0.210D+00 0.173D+00
 Coeff:      0.605D+00
 Gap=     0.081 Goal=   None    Shift=    0.000
 RMSDP=1.64D-04 MaxDP=1.65D-02 DE=-2.64D-01 OVMax= 3.35D-02

 Cycle   8  Pass 1  IDiag  1:
 RMSU=  9.40D-05    CP:  9.73D-01  7.69D-01  7.60D-01  1.28D-01  5.00D-01
                    CP:  4.64D-01  7.87D-01
 E= -33059.8299943420     Delta-E=       -0.002354477125 Rises=F Damp=F
 DIIS: error= 7.78D-04 at cycle   8 NSaved=   8.
 NSaved= 8 IEnMin= 8 EnMin= -33059.8299943420     IErMin= 8 ErrMin= 7.78D-04
 ErrMax= 7.78D-04 EMaxC= 1.00D-01 BMatC= 3.17D-03 BMatP= 9.51D-03
 IDIUse=3 WtCom= 9.92D-01 WtEn= 7.78D-03
 Coeff-Com: -0.401D-01 0.534D-01-0.180D-01 0.414D-02 0.588D-01 0.474D-01
 Coeff-Com:  0.364D+00 0.530D+00
 Coeff-En:   0.000D+00 0.000D+00 0.000D+00 0.000D+00 0.000D+00 0.000D+00
 Coeff-En:   0.362D+00 0.638D+00
 Coeff:     -0.398D-01 0.530D-01-0.179D-01 0.411D-02 0.583D-01 0.471D-01
 Coeff:      0.364D+00 0.531D+00
 Gap=     0.081 Goal=   None    Shift=    0.000
 RMSDP=1.06D-04 MaxDP=1.33D-02 DE=-2.35D-03 OVMax= 3.17D-02

 Cycle   9  Pass 1  IDiag  1:
 RMSU=  5.18D-05    CP:  9.74D-01  7.78D-01  7.60D-01  1.30D-01  5.15D-01
                    CP:  4.28D-01  9.46D-01  5.69D-01
 E= -33059.8317556924     Delta-E=       -0.001761350373 Rises=F Damp=F
 DIIS: error= 5.19D-04 at cycle   9 NSaved=   9.
 NSaved= 9 IEnMin= 9 EnMin= -33059.8317556924     IErMin= 9 ErrMin= 5.19D-04
 ErrMax= 5.19D-04 EMaxC= 1.00D-01 BMatC= 1.38D-03 BMatP= 3.17D-03
 IDIUse=3 WtCom= 9.95D-01 WtEn= 5.19D-03
 Coeff-Com: -0.847D-02 0.112D-01-0.557D-02 0.289D-02 0.154D-02 0.101D-02
 Coeff-Com:  0.166D+00 0.422D+00 0.410D+00
 Coeff-En:   0.000D+00 0.000D+00 0.000D+00 0.000D+00 0.000D+00 0.000D+00
 Coeff-En:   0.000D+00 0.346D+00 0.654D+00
 Coeff:     -0.843D-02 0.111D-01-0.554D-02 0.287D-02 0.153D-02 0.100D-02
 Coeff:      0.165D+00 0.421D+00 0.411D+00
 Gap=     0.080 Goal=   None    Shift=    0.000
 RMSDP=4.90D-05 MaxDP=4.76D-03 DE=-1.76D-03 OVMax= 1.57D-02

 Error on total polarization charges =  0.02674
 SCF Done:  E(RPBE-PBE) =  -33059.8317557     A.U. after    9 cycles
             Convg  =    0.4896D-04             -V/T =  2.0153
 KE= 3.256021882335D+04 PE=-9.882132773239D+04 EE= 2.290842791531D+04
 Leave Link  502 at Sat Jun 15 10:37:45 2019, MaxMem=13421772800 cpu:   27382.4
 (Enter /home/scr/programs/g09/l801.exe)
 Range of M.O.s used for correlation:     1  1172
 NBasis=  1172 NAE=   208 NBE=   208 NFC=     0 NFV=     0
 NROrb=   1172 NOA=   208 NOB=   208 NVA=   964 NVB=   964

 **** Warning!!: The largest alpha MO coefficient is  0.40741016D+02


 **** Warning!!: The smallest alpha delta epsilon is  0.80143504D-01

 Leave Link  801 at Sat Jun 15 10:37:46 2019, MaxMem=13421772800 cpu:       1.3
 (Enter /home/scr/programs/g09/l1002.exe)
 Minotr:  Closed shell wavefunction.
 NEqPCM:  Using equilibrium solvation (IEInf=0, Eps=   8.9300, EpsInf=   2.0283)
          Direct CPHF calculation.
          Differentiating once with respect to magnetic field using GIAOs.
          Electric field/nuclear overlap derivatives assumed to be zero.
          Requested convergence is 1.0D-08 RMS, and 1.0D-07 maximum.
          Secondary convergence is 1.0D-12 RMS, and 1.0D-12 maximum.
          NewPWx=T KeepS1=F KeepF1=F KeepIn=T MapXYZ=F SortEE=F KeepMc=T.
          MDV=   13421772420 using IRadAn=       2.
 Defaulting to unpruned grid for atomic number  50.
 Defaulting to unpruned grid for atomic number  78.
 Generate precomputed XC quadrature information.
          Solving linear equations simultaneously, MaxMat=       0.
 FoFCou: FMM=F IPFlag=           0 FMFlag=    10101102 FMFlg1=           0
         NFxFlg=    40000000 DoJE=F BraDBF=F KetDBF=T FulRan=T
         Omega=  0.000000  0.000000  1.000000  0.000000  0.000000 ICntrl=    6100 IOpCl=  0
         NMat0=    1 NMatS0=    1 NMatT0=    0 NMatD0=    1 NMtDS0=    0 NMtDT0=    0
         I1Cent=           7 NGrid=        4031.
 Symmetry not used in FoFCou.
 Defaulting to unpruned grid for atomic number  78.
 Defaulting to unpruned grid for atomic number  78.
 Defaulting to unpruned grid for atomic number  78.
 Defaulting to unpruned grid for atomic number  78.
 Defaulting to unpruned grid for atomic number  78.
 Defaulting to unpruned grid for atomic number  78.
 Defaulting to unpruned grid for atomic number  78.
 Defaulting to unpruned grid for atomic number  78.
 Defaulting to unpruned grid for atomic number  78.
 Defaulting to unpruned grid for atomic number  78.
 Defaulting to unpruned grid for atomic number  78.
 Defaulting to unpruned grid for atomic number  78.
 Defaulting to unpruned grid for atomic number  78.
 Defaulting to unpruned grid for atomic number  78.
 Defaulting to unpruned grid for atomic number  78.
 Defaulting to unpruned grid for atomic number  78.
 Defaulting to unpruned grid for atomic number  78.
 Defaulting to unpruned grid for atomic number  78.
 Defaulting to unpruned grid for atomic number  78.
 Defaulting to unpruned grid for atomic number  78.
 Defaulting to unpruned grid for atomic number  78.
 Defaulting to unpruned grid for atomic number  78.
 Defaulting to unpruned grid for atomic number  78.
 Defaulting to unpruned grid for atomic number  78.
 Defaulting to unpruned grid for atomic number  78.
 Defaulting to unpruned grid for atomic number  78.
 Defaulting to unpruned grid for atomic number  78.
 Defaulting to unpruned grid for atomic number  78.
 Defaulting to unpruned grid for atomic number  78.
 Defaulting to unpruned grid for atomic number  78.
 Defaulting to unpruned grid for atomic number  78.
 Defaulting to unpruned grid for atomic number  78.
          There are     3 degrees of freedom in the 1st order CPHF.  IDoFFX=0.
      3 vectors produced by pass  0 Test12= 6.68D-12 3.33D-08 XBig12= 2.78D+02 3.26D+00.
 AX will form     3 AO Fock derivatives at one time.
 Inverted reduced A of dimension     3 with in-core refinement.
 Calculating GIAO nuclear magnetic shielding tensors.
 SCF GIAO Magnetic shielding tensor (ppm):
  1  P    Isotropic =   272.1032   Anisotropy =    77.4173
   XX=   295.9505   YX=   -25.8760   ZX=    39.8225
   XY=   -32.9515   YY=   290.0476   ZY=    32.2879
   XZ=     3.9640   YZ=   -13.5260   ZZ=   230.3116
   Eigenvalues:   218.8513   273.7436   323.7148
  2  P    Isotropic =   279.2858   Anisotropy =    83.7629
   XX=   251.7639   YX=    24.7368   ZX=    31.0996
   XY=    -8.1506   YY=   308.8955   ZY=   -36.1451
   XZ=    17.1508   YZ=   -40.6117   ZZ=   277.1979
   Eigenvalues:   226.7836   275.9461   335.1277
  3  C    Isotropic =    49.0641   Anisotropy =   131.6140
   XX=     4.8087   YX=    53.7718   ZX=    22.1225
   XY=    68.3220   YY=    58.7344   ZY=    30.2231
   XZ=    10.3254   YZ=    55.7643   ZZ=    83.6493
   Eigenvalues:   -35.8975    46.2830   136.8068
  4  C    Isotropic =    19.1049   Anisotropy =   140.9467
   XX=   -42.9456   YX=    51.2219   ZX=    44.5629
   XY=    64.1526   YY=    28.0074   ZY=    34.7352
   XZ=    18.0658   YZ=    35.9319   ZZ=    72.2527
   Eigenvalues:   -75.9604    20.2056   113.0693
  5  C    Isotropic =    21.0856   Anisotropy =   167.8681
   XX=    -5.0990   YX=    73.2264   ZX=    14.4098
   XY=    62.5624   YY=   -18.8726   ZY=    68.1688
   XZ=    29.2880   YZ=    51.9612   ZZ=    87.2285
   Eigenvalues:   -86.1556    16.4149   132.9977
  6  C    Isotropic =    39.6327   Anisotropy =   111.6678
   XX=    24.3203   YX=    66.0229   ZX=     5.7460
   XY=    59.3658   YY=    25.2917   ZY=    36.4612
   XZ=    27.2550   YZ=    27.1811   ZZ=    69.2860
   Eigenvalues:   -39.0459    43.8661   114.0778
  7  C    Isotropic =   163.9554   Anisotropy =    29.5802
   XX=   175.8606   YX=     6.8528   ZX=   -12.9883
   XY=     5.7224   YY=   151.6513   ZY=     3.7701
   XZ=   -11.0583   YZ=     6.1535   ZZ=   164.3544
   Eigenvalues:   146.1145   162.0762   183.6756
  8  C    Isotropic =   162.2637   Anisotropy =    33.7564
   XX=   148.4433   YX=     0.1952   ZX=     2.4029
   XY=     3.5556   YY=   177.5503   ZY=   -11.9460
   XZ=     1.5089   YZ=   -14.3282   ZZ=   160.7974
   Eigenvalues:   147.3359   154.6872   184.7679
  9  C    Isotropic =    53.2563   Anisotropy =   128.7904
   XX=    48.4524   YX=    22.2080   ZX=   -19.9852
   XY=    18.3625   YY=    46.7289   ZY=    87.2085
   XZ=    26.2306   YZ=    73.1080   ZZ=    64.5876
   Eigenvalues:   -27.2856    47.9379   139.1165
 10  C    Isotropic =    17.7751   Anisotropy =   157.5333
   XX=    10.8012   YX=    12.2956   ZX=   -10.4151
   XY=     0.0593   YY=    12.5875   ZY=   107.1097
   XZ=     1.7851   YZ=    95.2006   ZZ=    29.9365
   Eigenvalues:   -80.8729    11.4008   122.7973
 11  C    Isotropic =    20.7951   Anisotropy =   149.5877
   XX=   -21.1678   YX=    32.4134   ZX=   -17.8439
   XY=    34.2307   YY=    38.2352   ZY=    79.4500
   XZ=   -35.3659   YZ=    77.6566   ZZ=    45.3179
   Eigenvalues:   -72.2321    14.0972   120.5202
 12  C    Isotropic =    43.7465   Anisotropy =   144.1080
   XX=    37.6095   YX=    11.8310   ZX=    -6.9839
   XY=    29.5088   YY=    60.0677   ZY=    79.4409
   XZ=   -20.6607   YZ=   103.7851   ZZ=    33.5624
   Eigenvalues:   -52.1722    43.5933   139.8185
 13  C    Isotropic =   165.3027   Anisotropy =    34.9760
   XX=   163.9689   YX=    13.4941   ZX=    -8.4037
   XY=    16.5435   YY=   168.4716   ZY=    -6.1445
   XZ=   -16.7175   YZ=    -7.2724   ZZ=   163.4674
   Eigenvalues:   148.3376   158.9504   188.6200
 14  C    Isotropic =   161.0436   Anisotropy =    30.1976
   XX=   178.7311   YX=    -4.8942   ZX=     4.3252
   XY=    -7.2365   YY=   153.9793   ZY=     2.1293
   XZ=     8.8345   YZ=     5.3538   ZZ=   150.4205
   Eigenvalues:   145.6941   156.2615   181.1754
 15  H    Isotropic =    24.8971   Anisotropy =     9.5373
   XX=    25.6635   YX=     4.3200   ZX=    -2.8230
   XY=     4.5108   YY=    27.6456   ZY=     0.2217
   XZ=    -1.7275   YZ=     1.2709   ZZ=    21.3823
   Eigenvalues:    19.4471    23.9889    31.2554
 16  H    Isotropic =    23.7466   Anisotropy =    11.0929
   XX=    24.1849   YX=     2.4605   ZX=    -2.7330
   XY=     4.0880   YY=    27.2035   ZY=    -3.0803
   XZ=    -2.9324   YZ=    -4.1129   ZZ=    19.8515
   Eigenvalues:    17.9706    22.1274    31.1419
 17  H    Isotropic =    29.1461   Anisotropy =     9.6711
   XX=    31.0791   YX=     4.5705   ZX=    -0.9962
   XY=     3.4248   YY=    32.0274   ZY=    -0.2345
   XZ=     0.0973   YZ=    -0.0514   ZZ=    24.3319
   Eigenvalues:    24.2993    27.5456    35.5935
[...]
     2  P    0.002856   0.004942   0.002361   0.005588   0.000561   0.005937
     3  C    0.000000   0.000000   0.000000   0.000000   0.000000   0.000000
     4  C    0.000000   0.000000   0.000000   0.000000   0.000000   0.000000
     5  C    0.000000   0.000000   0.000000   0.000000   0.000000   0.000000
     6  C    0.000000   0.000000   0.000000   0.000000   0.000000   0.000000
     7  C    0.000000   0.000000   0.000000   0.000000   0.000000   0.000000
     8  C    0.000000   0.000000   0.000000   0.000000   0.000000   0.000000
     9  C   -0.006570   0.000468  -0.003297   0.001120   0.001542  -0.000867
    10  C    0.021047   0.019336   0.036947  -0.002056  -0.000365  -0.005261
    11  C    0.009691   0.000446  -0.006016   0.029656   0.051129  -0.000996
    12  C   -0.001402   0.000416   0.001081  -0.015098  -0.002775   0.040283
    13  C    0.374318   0.375334   0.360096   0.000966   0.000862  -0.000041
    14  C    0.006624  -0.000223  -0.000331   0.373612   0.341695   0.364337
    15  H    0.000000   0.000000   0.000000   0.000000   0.000000   0.000000
    16  H    0.000000   0.000000   0.000000   0.000000   0.000000   0.000000
    17  H    0.000000   0.000000   0.000000   0.000000   0.000000   0.000000
    18  H    0.000000   0.000000   0.000000   0.000000   0.000000   0.000000
    19  H    0.000000   0.000000   0.000000   0.000000   0.000000   0.000000
    20  H    0.000000   0.000000   0.000000   0.000000   0.000000   0.000000
    21  H    0.000000   0.000000   0.000000   0.000000   0.000000   0.000000
    22  H    0.000000   0.000000   0.000000   0.000000   0.000000   0.000000
    23  H   -0.000028   0.001538  -0.000070   0.000002   0.000002   0.000000
    24  H   -0.000001   0.000000   0.000001   0.000005  -0.000017   0.001565
    25  H    0.440688   0.007318   0.010112  -0.000136   0.000650  -0.000039
    26  H    0.007318   0.438335   0.011302   0.000000   0.000006   0.000001
    27  H    0.010112   0.011302   0.452935   0.000017  -0.000071   0.000002
    28  H   -0.000136   0.000000   0.000017   0.436110   0.008762   0.006546
    29  H    0.000650   0.000006  -0.000071   0.008762   0.460764   0.009954
    30  H   -0.000039   0.000001   0.000002   0.006546   0.009954   0.459166
    31  Pt  -0.000308   0.000978  -0.001028   0.000105  -0.000386  -0.002662
    32  Sn   0.000978  -0.000087   0.000512   0.000228   0.000609   0.007425
    33  Cl  -0.000001   0.000000   0.000010   0.000000   0.000016   0.000037
    34  Cl   0.000193  -0.000595   0.004870  -0.000397   0.007224  -0.002113
    35  Cl  -0.000033   0.000007  -0.000019  -0.000211  -0.000788   0.002003
    36  C   -0.000002  -0.000012  -0.000014   0.000015  -0.000002   0.000007
    37  H    0.000000   0.000000   0.000000   0.000000   0.000000   0.000000
    38  H    0.000000   0.000001   0.000000  -0.000001   0.000000   0.000000
    39  H    0.000000   0.000000   0.000000   0.000000   0.000000   0.000000
    40  C    0.000000   0.000000   0.000000   0.000000   0.000000   0.000000
    41  H    0.000000   0.000000   0.000000   0.000000   0.000000   0.000000
    42  H    0.000000   0.000000   0.000000   0.000000   0.000000   0.000000
    43  H    0.000000   0.000000   0.000000   0.000000   0.000000   0.000000
    44  Sn  -0.000251   0.000905   0.000548   0.000225  -0.000305  -0.000144
    45  Cl   0.000000   0.000001   0.000000   0.000000   0.000000   0.000000
    46  Cl  -0.000023  -0.000074  -0.000127   0.000000   0.000005   0.000001
    47  Cl   0.000000   0.000001   0.000001   0.000000   0.000000   0.000000
             31         32         33         34         35         36
     1  P   -1.051643   0.035971   0.043297  -0.002576   0.006111  -0.001462
     2  P   -0.919068   0.116948   0.000476  -0.017828  -0.004609   0.119925
     3  C    0.054471   0.004640   0.000504   0.000080   0.000790   0.000369
     4  C    0.010551   0.011249  -0.001972  -0.000023   0.000102  -0.000061
     5  C    0.015457  -0.002278  -0.013219   0.000027  -0.001360  -0.000008
     6  C    0.051650   0.014093  -0.037507   0.000844  -0.002526  -0.000082
     7  C   -0.006863  -0.000308  -0.000068  -0.000002   0.000001  -0.000004
     8  C   -0.004386   0.000363   0.000551   0.000005  -0.000049   0.000001
     9  C    0.034192   0.006948   0.000002   0.003549  -0.000808   0.089101
    10  C    0.008071   0.001962  -0.000480   0.010808   0.000627  -0.003677
    11  C    0.018429  -0.010447  -0.000308   0.010044  -0.002359   0.001875
    12  C    0.041710  -0.008065   0.000096  -0.008735  -0.006600   0.001034
    13  C   -0.001981   0.001323   0.000057   0.001049  -0.000132   0.000974
    14  C   -0.006302   0.003273  -0.000070   0.001795   0.004795   0.000544
    15  H    0.013564   0.001775   0.000003  -0.000003   0.000003   0.000003
    16  H    0.019179   0.014249   0.026653   0.000084  -0.001589   0.000000
    17  H    0.000708   0.000061  -0.000004   0.000000   0.000000   0.000000
    18  H   -0.002710  -0.000161   0.000010   0.000000   0.000000   0.000000
    19  H    0.001318   0.000147   0.000000   0.000000  -0.000001   0.000000
    20  H    0.000358  -0.000462  -0.000040   0.000000   0.000000   0.000000
    21  H    0.001047   0.000963  -0.000087   0.000000  -0.000017   0.000000
    22  H   -0.002510   0.004143  -0.000254  -0.000003  -0.000292   0.000000
    23  H    0.020816   0.002814  -0.000004  -0.000333   0.000039  -0.006372
    24  H    0.013883  -0.005612  -0.000008  -0.000452   0.010073  -0.003022
    25  H   -0.000308   0.000978  -0.000001   0.000193  -0.000033  -0.000002
    26  H    0.000978  -0.000087   0.000000  -0.000595   0.000007  -0.000012
    27  H   -0.001028   0.000512   0.000010   0.004870  -0.000019  -0.000014
    28  H    0.000105   0.000228   0.000000  -0.000397  -0.000211   0.000015
    29  H   -0.000386   0.000609   0.000016   0.007224  -0.000788  -0.000002
    30  H   -0.002662   0.007425   0.000037  -0.002113   0.002003   0.000007
    31  Pt  78.599067   0.077237  -0.003731   0.040563   0.015989  -0.019961
    32  Sn   0.077237  48.974420   0.190421   0.173289   0.177544   0.003920
    33  Cl  -0.003731   0.190421  16.963307   0.014602   0.011318  -0.000067
    34  Cl   0.040563   0.173289   0.014602  16.971502   0.020998  -0.000195
    35  Cl   0.015989   0.177544   0.011318   0.020998  16.983739   0.000283
    36  C   -0.019961   0.003920  -0.000067  -0.000195   0.000283   4.991524
    37  H   -0.003305   0.000466  -0.000001  -0.000005   0.000004   0.364464
    38  H   -0.008284  -0.000426   0.000002   0.000066   0.000071   0.417345
    39  H    0.023799   0.001534  -0.000015  -0.000034  -0.000049   0.343628
    40  C   -0.021247  -0.004792  -0.028504  -0.001268   0.000764  -0.000003
    41  H    0.009393   0.001303  -0.000262   0.000152   0.000024   0.000000
    42  H    0.002239  -0.001493  -0.000305   0.000023   0.000015   0.000000
    43  H    0.005517  -0.002594   0.015037  -0.000416  -0.000215   0.000000
    44  Sn   0.022210  -0.028089  -0.000053   0.000630   0.001360  -0.007555
    45  Cl   0.017941   0.001964  -0.000103   0.000021  -0.000034  -0.000040
    46  Cl   0.021392   0.000560  -0.000069  -0.000091  -0.000077  -0.027776
    47  Cl   0.023184  -0.001752  -0.000007  -0.000108  -0.000011   0.000435
             37         38         39         40         41         42
     1  P    0.000030   0.000046   0.000584   0.164511   0.057061   0.027764
     2  P    0.039441   0.008032   0.047960  -0.000097  -0.000010   0.000171
     3  C   -0.000005   0.000000  -0.000006   0.048435   0.005565   0.000451
     4  C    0.000000   0.000000   0.000003   0.004329   0.000845  -0.000963
     5  C    0.000000   0.000000   0.000000  -0.002932   0.000026   0.000866
     6  C    0.000000   0.000000  -0.000006   0.061633  -0.007182  -0.000693
     7  C    0.000000   0.000000   0.000000   0.000423  -0.000019  -0.000077
     8  C    0.000000   0.000000   0.000000   0.000742   0.000000  -0.000069
     9  C    0.012027   0.003223  -0.005501   0.000058  -0.000003   0.000000
    10  C    0.001732   0.001660   0.000366  -0.000004   0.000000   0.000000
    11  C    0.000583  -0.001273   0.000522   0.000005   0.000000   0.000000
    12  C   -0.009292   0.000813   0.000359  -0.000069   0.000000   0.000000
    13  C   -0.000062  -0.000142   0.000001   0.000000   0.000000   0.000000
    14  C    0.000001  -0.000043  -0.000026   0.000000   0.000000   0.000000
    15  H    0.000000   0.000000   0.000000  -0.009311   0.000446  -0.000191
    16  H    0.000000   0.000000   0.000000  -0.009296  -0.000011  -0.000071
    17  H    0.000000   0.000000   0.000000   0.000003   0.000000  -0.000001
    18  H    0.000000   0.000000   0.000000  -0.000002   0.000000   0.000000
    19  H    0.000000   0.000000   0.000000  -0.000003   0.000000   0.000000
    20  H    0.000000   0.000000   0.000000   0.000000   0.000000   0.000000
    21  H    0.000000   0.000000   0.000000  -0.000009   0.000000   0.000000
    22  H    0.000000   0.000000   0.000000   0.000012   0.000000   0.000000
    23  H    0.000708  -0.000069  -0.000012   0.000000   0.000000   0.000000
    24  H   -0.000018  -0.000270   0.000302   0.000000   0.000000   0.000000
    25  H    0.000000   0.000000   0.000000   0.000000   0.000000   0.000000
    26  H    0.000000   0.000001   0.000000   0.000000   0.000000   0.000000
    27  H    0.000000   0.000000   0.000000   0.000000   0.000000   0.000000
    28  H    0.000000  -0.000001   0.000000   0.000000   0.000000   0.000000
    29  H    0.000000   0.000000   0.000000   0.000000   0.000000   0.000000
    30  H    0.000000   0.000000   0.000000   0.000000   0.000000   0.000000
    31  Pt  -0.003305  -0.008284   0.023799  -0.021247   0.009393   0.002239
    32  Sn   0.000466  -0.000426   0.001534  -0.004792   0.001303  -0.001493
    33  Cl  -0.000001   0.000002  -0.000015  -0.028504  -0.000262  -0.000305
    34  Cl  -0.000005   0.000066  -0.000034  -0.001268   0.000152   0.000023
    35  Cl   0.000004   0.000071  -0.000049   0.000764   0.000024   0.000015
    36  C    0.364464   0.417345   0.343628  -0.000003   0.000000   0.000000
    37  H    0.445551   0.008647   0.012632   0.000000   0.000000   0.000000
    38  H    0.008647   0.431710   0.008705   0.000000   0.000000   0.000000
    39  H    0.012632   0.008705   0.459290   0.000000   0.000000   0.000000
    40  C    0.000000   0.000000   0.000000   4.980961   0.340202   0.386869
    41  H    0.000000   0.000000   0.000000   0.340202   0.451119   0.010413
    42  H    0.000000   0.000000   0.000000   0.386869   0.010413   0.439115
    43  H    0.000000   0.000000   0.000000   0.339938   0.014398   0.010742
    44  Sn   0.003001  -0.002375  -0.004253  -0.011478  -0.003703  -0.001004
    45  Cl   0.000583  -0.000114   0.000179   0.000960   0.000032   0.000028
    46  Cl   0.017131  -0.000855  -0.000360  -0.000119  -0.000021   0.000008
    47  Cl   0.000056  -0.000009   0.000038  -0.008462   0.012907  -0.000359
             43         44         45         46         47
     1  P    0.051520   0.144941   0.005855  -0.002033   0.014184
     2  P    0.000196   0.110035  -0.003210   0.006175  -0.002037
     3  C   -0.010965   0.006728   0.003326   0.000488  -0.014351
     4  C    0.000106  -0.004140  -0.008673  -0.000157  -0.008216
     5  C    0.001558   0.008537  -0.001279   0.000052  -0.001159
     6  C    0.013389  -0.003802   0.000799  -0.000044   0.002892
     7  C    0.000001   0.002068   0.000086   0.000016   0.000057
     8  C   -0.000053  -0.000249  -0.000001  -0.000002  -0.000045
     9  C   -0.000002   0.006752   0.000690  -0.015389  -0.000579
    10  C    0.000000  -0.002277  -0.000065   0.000764  -0.000058
    11  C    0.000000   0.002811  -0.000001   0.000500  -0.000043
    12  C    0.000001   0.002873  -0.000466  -0.000947   0.000062
    13  C    0.000000  -0.000298  -0.000004   0.000495   0.000019
    14  C    0.000000   0.000157   0.000002   0.000000   0.000001
    15  H   -0.000012   0.006526   0.008808   0.000104   0.006196
    16  H    0.000771   0.000538   0.000019   0.000001   0.000011
    17  H    0.000000  -0.000546  -0.000048   0.000000   0.000007
    18  H    0.000000   0.001859   0.001612   0.000002  -0.000264
    19  H    0.000000   0.001125  -0.000171  -0.000001  -0.000020
    20  H    0.000000   0.000036  -0.000001   0.000000   0.000004
    21  H    0.000000   0.000359  -0.000006   0.000000   0.000000
    22  H    0.000000  -0.000403  -0.000001   0.000000   0.000005
    23  H    0.000000  -0.003715   0.000007   0.017719  -0.000065
    24  H    0.000000   0.001946  -0.000008   0.000025  -0.000005
    25  H    0.000000  -0.000251   0.000000  -0.000023   0.000000
    26  H    0.000000   0.000905   0.000001  -0.000074   0.000001
    27  H    0.000000   0.000548   0.000000  -0.000127   0.000001
    28  H    0.000000   0.000225   0.000000   0.000000   0.000000
    29  H    0.000000  -0.000305   0.000000   0.000005   0.000000
    30  H    0.000000  -0.000144   0.000000   0.000001   0.000000
    31  Pt   0.005517   0.022210   0.017941   0.021392   0.023184
    32  Sn  -0.002594  -0.028089   0.001964   0.000560  -0.001752
    33  Cl   0.015037  -0.000053  -0.000103  -0.000069  -0.000007
    34  Cl  -0.000416   0.000630   0.000021  -0.000091  -0.000108
    35  Cl  -0.000215   0.001360  -0.000034  -0.000077  -0.000011
    36  C    0.000000  -0.007555  -0.000040  -0.027776   0.000435
    37  H    0.000000   0.003001   0.000583   0.017131   0.000056
    38  H    0.000000  -0.002375  -0.000114  -0.000855  -0.000009
    39  H    0.000000  -0.004253   0.000179  -0.000360   0.000038
    40  C    0.339938  -0.011478   0.000960  -0.000119  -0.008462
    41  H    0.014398  -0.003703   0.000032  -0.000021   0.012907
    42  H    0.010742  -0.001004   0.000028   0.000008  -0.000359
    43  H    0.452750   0.002859   0.000016   0.000002  -0.000156
    44  Sn   0.002859  48.874057   0.195647   0.191246   0.197426
    45  Cl   0.000016   0.195647  16.968519   0.011756   0.018600
    46  Cl   0.000002   0.191246   0.011756  16.956090   0.013458
    47  Cl  -0.000156   0.197426   0.018600   0.013458  16.969859
 Mulliken atomic charges:
              1
     1  P   -0.186564
     2  P   -0.143932
     3  C    0.052959
     4  C   -0.468364
     5  C   -0.446802
     6  C    0.081665
     7  C   -0.139436
     8  C   -0.166492
     9  C    0.035450
    10  C   -0.401397
    11  C   -0.391298
    12  C   -0.035711
    13  C   -0.160290
    14  C   -0.078071
    15  H    0.119396
    16  H    0.103712
    17  H    0.144245
    18  H    0.129245
    19  H    0.140720
    20  H    0.142740
    21  H    0.142407
    22  H    0.134500
    23  H    0.121928
    24  H    0.127210
    25  H    0.134325
    26  H    0.139653
    27  H    0.130155
    28  H    0.154935
    29  H    0.120947
    30  H    0.114874
    31  Pt   0.891356
    32  Sn   0.233230
    33  Cl  -0.179262
    34  Cl  -0.227242
    35  Cl  -0.214884
    36  C   -0.265133
    37  H    0.105633
    38  H    0.133537
    39  H    0.110359
    40  C   -0.232251
    41  H    0.107325
    42  H    0.126524
    43  H    0.105612
    44  Sn   0.287234
    45  Cl  -0.223226
    46  Cl  -0.189825
    47  Cl  -0.221697
 Sum of Mulliken atomic charges =   0.00000
 Mulliken charges with hydrogens summed into heavy atoms:
              1
     1  P   -0.186564
     2  P   -0.143932
     3  C    0.172355
     4  C   -0.468364
     5  C   -0.446802
     6  C    0.185377
     7  C    0.274774
     8  C    0.253155
     9  C    0.157377
    10  C   -0.401397
    11  C   -0.391298
    12  C    0.091499
    13  C    0.243843
    14  C    0.312685
    31  Pt   0.891356
    32  Sn   0.233230
    33  Cl  -0.179262
    34  Cl  -0.227242
    35  Cl  -0.214884
    36  C    0.084397
    40  C    0.107209
    44  Sn   0.287234
    45  Cl  -0.223226
    46  Cl  -0.189825
    47  Cl  -0.221697
 Sum of Mulliken charges with hydrogens summed into heavy atoms =   0.00000
 Electronic spatial extent (au):  <R**2>=          18939.8885
 Charge=              0.0000 electrons
 Dipole moment (field-independent basis, Debye):
    X=              0.3100    Y=              1.2679    Z=             -6.0015  Tot=              6.1418
 Quadrupole moment (field-independent basis, Debye-Ang):
   XX=           -285.3326   YY=           -270.9707   ZZ=           -270.8258
   XY=             63.7079   XZ=              1.4955   YZ=             -1.1608
 Traceless Quadrupole moment (field-independent basis, Debye-Ang):
   XX=             -9.6229   YY=              4.7390   ZZ=              4.8839
   XY=             63.7079   XZ=              1.4955   YZ=             -1.1608
 Octapole moment (field-independent basis, Debye-Ang**2):
  XXX=            -29.5521  YYY=             43.5418  ZZZ=            -19.0086  XYY=             21.6637
  XXY=             -1.4165  XXZ=            -48.8602  XZZ=             14.7514  YZZ=             -3.8036
  YYZ=            -45.8942  XYZ=            -13.3226
 Hexadecapole moment (field-independent basis, Debye-Ang**3):
 XXXX=         -12016.2112 YYYY=          -9297.4705 ZZZZ=          -2809.7281 XXXY=            535.9888
 XXXZ=             11.8684 YYYX=            342.6244 YYYZ=           -171.3050 ZZZX=            -16.6209
 ZZZY=             30.8102 XXYY=          -3473.0860 XXZZ=          -2584.0185 YYZZ=          -2008.7962
 XXYZ=            -79.9636 YYXZ=           -116.8185 ZZXY=             48.5454
 N-N= 1.029284923804D+04 E-N=-9.882100267442D+04  KE= 3.256021882335D+04
 Calculating spin-rotation constants.
 Leave Link  601 at Sat Jun 15 11:07:04 2019, MaxMem=13421772800 cpu:    9335.4
 (Enter /home/scr/programs/g09/l9999.exe)
 1\1\GINC-NEQC33\SP\RPBEPBE\Gen\C14H22Cl6P2Pt1Sn2\GUEST1\15-Jun-2019\0\
 \#PBEPBE/gen scf=(maxcycle=500,conver=4) NMR=GIAO Scrf=(solvent=Dichlo
 romethane)\\estrutura 55\\0,1\P,0,-1.548757,1.779391,-0.597815\P,0,1.1
 73308,-1.739273,1.136692\C,0,-3.238943,1.72114,0.051212\C,0,-3.462591,
 2.781348,0.863561\C,0,-2.312798,3.737729,0.945973\C,0,-1.239964,3.3718
 19,0.204212\C,0,-4.728519,3.018644,1.633889\C,0,-2.388522,4.976046,1.7
 88828\C,0,1.890902,-2.977635,0.041976\C,0,3.245965,-2.915201,0.093023\
 C,0,3.768229,-1.888246,1.049514\C,0,2.797451,-1.215076,1.722337\C,0,4.
 150572,-3.781779,-0.736246\C,0,5.237424,-1.640859,1.220803\H,0,-3.9580
 27,0.92543,-0.14634\H,0,-0.312341,3.935209,0.106519\H,0,-5.167516,4.00
 1123,1.39558\H,0,-5.473414,2.239435,1.424735\H,0,-4.531092,3.020004,2.
 719096\H,0,-3.303461,5.554081,1.575141\H,0,-2.428616,4.711304,2.860593
 \H,0,-1.514889,5.62199,1.627214\H,0,1.302783,-3.647501,-0.583266\H,0,2
 .968563,-0.425646,2.453929\H,0,5.181718,-3.812176,-0.352884\H,0,3.7656
 15,-4.811123,-0.775332\H,0,4.191087,-3.407258,-1.77525\H,0,5.723231,-2
 .486238,1.738426\H,0,5.731617,-1.538492,0.243225\H,0,5.421029,-0.72949
 9,1.803941\Pt,0,-0.138554,-0.012185,0.131934\Sn,0,2.063845,1.42627,-0.
 314839\Cl,0,1.811908,3.437104,-1.66377\Cl,0,3.75195,0.359886,-1.682964
 \Cl,0,3.395783,2.36408,1.48188\C,0,0.33982,-2.604202,2.529498\H,0,-0.4
 79105,-3.225155,2.139465\H,0,1.07382,-3.247817,3.035398\H,0,-0.060966,
 -1.860856,3.233864\C,0,-1.617037,2.022124,-2.41476\H,0,-1.854388,1.058
 812,-2.885495\H,0,-2.393234,2.761475,-2.654487\H,0,-0.635389,2.375697,
 -2.75598\Sn,0,-2.122462,-1.723084,-0.259218\Cl,0,-4.047931,-1.794012,1
 .20525\Cl,0,-1.602832,-4.088232,-0.362599\Cl,0,-3.222357,-1.423447,-2.
 393218\\Version=EM64L-G09RevA.02\State=1-A\HF=-33059.8317557\RMSD=4.89
 6e-05\Dipole=-0.1219473,0.4988367,2.361178\Quadrupole=-7.1543899,3.523
 3338,3.6310561,-47.3652553,1.1118426,0.8630334\PG=C01 [X(C14H22Cl6P2Pt
 1Sn2)]\\@


 SEE YOU NOW,
 YOUR BAIT OF FALSEHOOD TAKES THIS CARP OF TRUTH.
 AND THUS DO WE OF WISDOM AND OF REACH...
 BY INDIRECTIONS FIND DIRECTIONS OUT.    -- HAMLET, II, 1
 Job cpu time:  0 days 22 hours 56 minutes 30.5 seconds.
 File lengths (MBytes):  RWF=   1033 Int=      0 D2E=      0 Chk=     76 Scr=      1
 Normal termination of Gaussian 09 at Sat Jun 15 11:07:04 2019.
