 Entering Gaussian System, Link 0=g09
 Input=estrutura4.com
 Output=estrutura4.log
 Initial command:
 /scr/programs/g09/l1.exe "/scr/diego/Gau-12609.inp" -scrdir="/scr/diego/"
 Entering Link 1 = /scr/programs/g09/l1.exe PID=     12610.
  
 Copyright (c) 1988,1990,1992,1993,1995,1998,2003,2009,2013,
            Gaussian, Inc.  All Rights Reserved.
  
 This is part of the Gaussian(R) 09 program.  It is based on
 the Gaussian(R) 03 system (copyright 2003, Gaussian, Inc.),
 the Gaussian(R) 98 system (copyright 1998, Gaussian, Inc.),
 the Gaussian(R) 94 system (copyright 1995, Gaussian, Inc.),
 the Gaussian 92(TM) system (copyright 1992, Gaussian, Inc.),
 the Gaussian 90(TM) system (copyright 1990, Gaussian, Inc.),
 the Gaussian 88(TM) system (copyright 1988, Gaussian, Inc.),
 the Gaussian 86(TM) system (copyright 1986, Carnegie Mellon
 University), and the Gaussian 82(TM) system (copyright 1983,
 Carnegie Mellon University). Gaussian is a federally registered
 trademark of Gaussian, Inc.
  
 This software contains proprietary and confidential information,
 including trade secrets, belonging to Gaussian, Inc.
  
 This software is provided under written license and may be
 used, copied, transmitted, or stored only in accord with that
 written license.
  
 The following legend is applicable only to US Government
 contracts under FAR:
  
                    RESTRICTED RIGHTS LEGEND
  
 Use, reproduction and disclosure by the US Government is
 subject to restrictions as set forth in subparagraphs (a)
 and (c) of the Commercial Computer Software - Restricted
 Rights clause in FAR 52.227-19.
  
 Gaussian, Inc.
 340 Quinnipiac St., Bldg. 40, Wallingford CT 06492
  
  
 ---------------------------------------------------------------
 Warning -- This program may not be used in any manner that
 competes with the business of Gaussian, Inc. or will provide
 assistance to any competitor of Gaussian, Inc.  The licensee
 of this program is prohibited from giving any competitor of
 Gaussian, Inc. access to this program.  By using this program,
 the user acknowledges that Gaussian, Inc. is engaged in the
 business of creating and licensing software in the field of
 computational chemistry and represents and warrants to the
 licensee that it is not a competitor of Gaussian, Inc. and that
 it will not use this program in any manner prohibited above.
 ---------------------------------------------------------------
  

 Cite this work as:
 Gaussian 09, Revision D.01,
 M. J. Frisch, G. W. Trucks, H. B. Schlegel, G. E. Scuseria, 
 M. A. Robb, J. R. Cheeseman, G. Scalmani, V. Barone, B. Mennucci, 
 G. A. Petersson, H. Nakatsuji, M. Caricato, X. Li, H. P. Hratchian, 
 A. F. Izmaylov, J. Bloino, G. Zheng, J. L. Sonnenberg, M. Hada, 
 M. Ehara, K. Toyota, R. Fukuda, J. Hasegawa, M. Ishida, T. Nakajima, 
 Y. Honda, O. Kitao, H. Nakai, T. Vreven, J. A. Montgomery, Jr., 
 J. E. Peralta, F. Ogliaro, M. Bearpark, J. J. Heyd, E. Brothers, 
 K. N. Kudin, V. N. Staroverov, T. Keith, R. Kobayashi, J. Normand, 
 K. Raghavachari, A. Rendell, J. C. Burant, S. S. Iyengar, J. Tomasi, 
 M. Cossi, N. Rega, J. M. Millam, M. Klene, J. E. Knox, J. B. Cross, 
 V. Bakken, C. Adamo, J. Jaramillo, R. Gomperts, R. E. Stratmann, 
 O. Yazyev, A. J. Austin, R. Cammi, C. Pomelli, J. W. Ochterski, 
 R. L. Martin, K. Morokuma, V. G. Zakrzewski, G. A. Voth, 
 P. Salvador, J. J. Dannenberg, S. Dapprich, A. D. Daniels, 
 O. Farkas, J. B. Foresman, J. V. Ortiz, J. Cioslowski, 
 and D. J. Fox, Gaussian, Inc., Wallingford CT, 2013.
 
 ******************************************
 Gaussian 09:  EM64L-G09RevD.01 24-Apr-2013
                 7-Sep-2018 
 ******************************************
 %mem=15Gb
 %nproc=8
 Will use up to    8 processors via shared memory.
 ----------------------------------------------------------------------
 #PBEPBE/gen scf=(maxcycle=1000,conver=4) NMR=GIAO Scrf=(solvent=Dichlo
 romethane)
 ----------------------------------------------------------------------
 1/38=1/1;
 2/12=2,17=6,18=5,40=1/2;
 3/5=7,11=2,16=1,25=1,30=1,70=2201,72=9,74=1009/1,2,8,3;
 4//1;
 5/5=2,6=4,7=1000,38=5,53=9/2;
 8/6=1,10=90,11=11/1;
 10/13=100,45=16/2;
 6/7=2,8=2,9=2,10=2,28=1/1;
 99/9=1/99;
 Leave Link    1 at Fri Sep  7 05:02:06 2018, MaxMem=  2013265920 cpu:         0.4
 (Enter /scr/programs/g09/l101.exe)
 -----------
 estrutura 4
 -----------
 Symbolic Z-matrix:
 Charge =  0 Multiplicity = 1
 Pt                    0.1244    0.3245   -0.14711 
 H                     0.40597   1.75759  -0.71887 
 Sn                   -0.39723  -2.13138   0.97844 
 P                    -2.12742   0.83524  -0.59612 
 P                     2.47274   0.1573    0.08724 
 Cl                   -2.03929  -2.20944   2.79823 
 Cl                   -1.2004   -4.04506  -0.31065 
 Cl                    1.41598  -3.32238   2.15478 
 C                    -3.10386   1.37142   0.86159 
 C                    -4.49245   1.57639   0.77247 
 C                    -2.44721   1.64009   2.07461 
 C                    -5.20778   2.04221   1.87772 
 H                    -5.02374   1.3682   -0.1587 
 C                    -3.16431   2.1122    3.17858 
 H                    -1.36986   1.48213   2.15265 
 C                    -4.54482   2.31452   3.08089 
 H                    -6.28814   2.19374   1.79787 
 H                    -2.64257   2.32024   4.11439 
 H                    -5.1079    2.68282   3.942 
 C                    -3.04473  -0.5614   -1.37014 
 C                    -2.74942  -0.8993   -2.70402 
 C                    -3.96624  -1.34477  -0.6548 
 C                    -3.38653  -1.97951  -3.31743 
 H                    -2.01011  -0.32937  -3.27277 
 C                    -4.59983  -2.42645  -1.27473 
 H                    -4.18111  -1.12921   0.3936 
 C                    -4.31902  -2.74197  -2.60571 
 H                    -3.14776  -2.22768  -4.35321 
 H                    -5.31175  -3.0296   -0.70657 
 H                    -4.81339  -3.58953  -3.08684 
 C                    -2.39224   2.21039  -1.85168 
 H                    -3.47528   2.23006  -2.04816 
 H                    -1.89804   1.86858  -2.77271 
 C                    -1.88893   3.57787  -1.46236 
 C                    -0.63528   4.03585  -1.904 
 C                    -2.67226   4.43647  -0.66984 
 C                    -0.17227   5.3095   -1.55546 
 H                    -0.01964   3.39446  -2.53951 
 C                    -2.21054   5.70863  -0.31923 
 H                    -3.65749   4.10946  -0.32955 
 C                    -0.95716   6.14854  -0.75809 
 H                     0.80414   5.64725  -1.91269 
 H                    -2.83745   6.36079   0.29482 
 H                    -0.59761   7.14473  -0.4869 
 C                     3.4295    1.52152  -0.71306 
 C                     3.1413    2.84102  -0.31698 
 C                     4.43684   1.30355  -1.66568 
 C                     3.84953   3.9157   -0.85532 
 H                     2.35749   3.0318    0.41863 
 C                     5.13825   2.3846   -2.21379 
 H                     4.6928    0.29605  -1.99799 
 C                     4.84975   3.69015  -1.80898 
 H                     3.6162    4.93336  -0.53076 
 H                     5.9161    2.19707  -2.95952 
 H                     5.40249   4.53121  -2.23429 
 C                     3.05197   0.24432   1.83486 
 C                     4.35749  -0.14287   2.19022 
 C                     2.18713   0.72347   2.83201 
 C                     4.78109  -0.06091   3.51906 
 H                     5.05637  -0.5131    1.4377 
 C                     2.61818   0.81469   4.16007 
 H                     1.16909   1.02318   2.57153 
 C                     3.91255   0.4172    4.50635 
 H                     5.7931   -0.37599   3.78541 
 H                     1.9323    1.18709   4.92515 
 H                     4.24679   0.48025   5.54513 
 C                     3.18483  -1.43729  -0.54823 
 H                     4.27153  -1.30543  -0.67844 
 H                     3.05491  -2.1391    0.28887 
 C                     2.5606   -2.02585  -1.80002 
 C                     2.33474  -3.4121   -1.85543 
 C                     2.22536  -1.25232  -2.92586 
 C                     1.80468  -4.01037  -3.002 
 H                     2.56463  -4.02874  -0.9828 
 C                     1.69693  -1.84934  -4.07461 
 H                     2.37294  -0.17118  -2.91519 
 C                     1.48711  -3.23103  -4.11853 
 H                     1.63082  -5.08964  -3.01714 
 H                     1.4469   -1.22779  -4.93874 
 H                     1.0711   -3.69614  -5.01555 
 
 NAtoms=     80 NQM=       80 NQMF=       0 NMMI=      0 NMMIF=      0
                NMic=       0 NMicF=      0.
                    Isotopes and Nuclear Properties:
 (Nuclear quadrupole moments (NQMom) in fm**2, nuclear magnetic moments (NMagM)
  in nuclear magnetons)

  Atom         1           2           3           4           5           6           7           8           9          10
 IAtWgt=         195           1         118          31          31          35          35          35          12          12
 AtmWgt= 194.9648000   1.0078250 117.9018000  30.9737634  30.9737634  34.9688527  34.9688527  34.9688527  12.0000000  12.0000000
 NucSpn=           1           1           0           1           1           3           3           3           0           0
 AtZEff=   0.0000000   0.0000000   0.0000000   0.0000000   0.0000000   0.0000000   0.0000000   0.0000000   0.0000000   0.0000000
 NQMom=    0.0000000   0.0000000   0.0000000   0.0000000   0.0000000  -8.1650000  -8.1650000  -8.1650000   0.0000000   0.0000000
 NMagM=    0.6095000   2.7928460   0.0000000   1.1316000   1.1316000   0.8218740   0.8218740   0.8218740   0.0000000   0.0000000
 AtZNuc=  78.0000000   1.0000000  50.0000000  15.0000000  15.0000000  17.0000000  17.0000000  17.0000000   6.0000000   6.0000000

  Atom        11          12          13          14          15          16          17          18          19          20
 IAtWgt=          12          12           1          12           1          12           1           1           1          12
 AtmWgt=  12.0000000  12.0000000   1.0078250  12.0000000   1.0078250  12.0000000   1.0078250   1.0078250   1.0078250  12.0000000
 NucSpn=           0           0           1           0           1           0           1           1           1           0
 AtZEff=   0.0000000   0.0000000   0.0000000   0.0000000   0.0000000   0.0000000   0.0000000   0.0000000   0.0000000   0.0000000
 NQMom=    0.0000000   0.0000000   0.0000000   0.0000000   0.0000000   0.0000000   0.0000000   0.0000000   0.0000000   0.0000000
 NMagM=    0.0000000   0.0000000   2.7928460   0.0000000   2.7928460   0.0000000   2.7928460   2.7928460   2.7928460   0.0000000
 AtZNuc=   6.0000000   6.0000000   1.0000000   6.0000000   1.0000000   6.0000000   1.0000000   1.0000000   1.0000000   6.0000000

  Atom        21          22          23          24          25          26          27          28          29          30
 IAtWgt=          12          12          12           1          12           1          12           1           1           1
 AtmWgt=  12.0000000  12.0000000  12.0000000   1.0078250  12.0000000   1.0078250  12.0000000   1.0078250   1.0078250   1.0078250
 NucSpn=           0           0           0           1           0           1           0           1           1           1
 AtZEff=   0.0000000   0.0000000   0.0000000   0.0000000   0.0000000   0.0000000   0.0000000   0.0000000   0.0000000   0.0000000
 NQMom=    0.0000000   0.0000000   0.0000000   0.0000000   0.0000000   0.0000000   0.0000000   0.0000000   0.0000000   0.0000000
 NMagM=    0.0000000   0.0000000   0.0000000   2.7928460   0.0000000   2.7928460   0.0000000   2.7928460   2.7928460   2.7928460
 AtZNuc=   6.0000000   6.0000000   6.0000000   1.0000000   6.0000000   1.0000000   6.0000000   1.0000000   1.0000000   1.0000000

  Atom        31          32          33          34          35          36          37          38          39          40
 IAtWgt=          12           1           1          12          12          12          12           1          12           1
 AtmWgt=  12.0000000   1.0078250   1.0078250  12.0000000  12.0000000  12.0000000  12.0000000   1.0078250  12.0000000   1.0078250
 NucSpn=           0           1           1           0           0           0           0           1           0           1
 AtZEff=   0.0000000   0.0000000   0.0000000   0.0000000   0.0000000   0.0000000   0.0000000   0.0000000   0.0000000   0.0000000
 NQMom=    0.0000000   0.0000000   0.0000000   0.0000000   0.0000000   0.0000000   0.0000000   0.0000000   0.0000000   0.0000000
 NMagM=    0.0000000   2.7928460   2.7928460   0.0000000   0.0000000   0.0000000   0.0000000   2.7928460   0.0000000   2.7928460
 AtZNuc=   6.0000000   1.0000000   1.0000000   6.0000000   6.0000000   6.0000000   6.0000000   1.0000000   6.0000000   1.0000000

  Atom        41          42          43          44          45          46          47          48          49          50
 IAtWgt=          12           1           1           1          12          12          12          12           1          12
 AtmWgt=  12.0000000   1.0078250   1.0078250   1.0078250  12.0000000  12.0000000  12.0000000  12.0000000   1.0078250  12.0000000
 NucSpn=           0           1           1           1           0           0           0           0           1           0
 AtZEff=   0.0000000   0.0000000   0.0000000   0.0000000   0.0000000   0.0000000   0.0000000   0.0000000   0.0000000   0.0000000
 NQMom=    0.0000000   0.0000000   0.0000000   0.0000000   0.0000000   0.0000000   0.0000000   0.0000000   0.0000000   0.0000000
 NMagM=    0.0000000   2.7928460   2.7928460   2.7928460   0.0000000   0.0000000   0.0000000   0.0000000   2.7928460   0.0000000
 AtZNuc=   6.0000000   1.0000000   1.0000000   1.0000000   6.0000000   6.0000000   6.0000000   6.0000000   1.0000000   6.0000000

  Atom        51          52          53          54          55          56          57          58          59          60
 IAtWgt=           1          12           1           1           1          12          12          12          12           1
 AtmWgt=   1.0078250  12.0000000   1.0078250   1.0078250   1.0078250  12.0000000  12.0000000  12.0000000  12.0000000   1.0078250
 NucSpn=           1           0           1           1           1           0           0           0           0           1
 AtZEff=   0.0000000   0.0000000   0.0000000   0.0000000   0.0000000   0.0000000   0.0000000   0.0000000   0.0000000   0.0000000
 NQMom=    0.0000000   0.0000000   0.0000000   0.0000000   0.0000000   0.0000000   0.0000000   0.0000000   0.0000000   0.0000000
 NMagM=    2.7928460   0.0000000   2.7928460   2.7928460   2.7928460   0.0000000   0.0000000   0.0000000   0.0000000   2.7928460
 AtZNuc=   1.0000000   6.0000000   1.0000000   1.0000000   1.0000000   6.0000000   6.0000000   6.0000000   6.0000000   1.0000000

  Atom        61          62          63          64          65          66          67          68          69          70
 IAtWgt=          12           1          12           1           1           1          12           1           1          12
 AtmWgt=  12.0000000   1.0078250  12.0000000   1.0078250   1.0078250   1.0078250  12.0000000   1.0078250   1.0078250  12.0000000
 NucSpn=           0           1           0           1           1           1           0           1           1           0
 AtZEff=   0.0000000   0.0000000   0.0000000   0.0000000   0.0000000   0.0000000   0.0000000   0.0000000   0.0000000   0.0000000
 NQMom=    0.0000000   0.0000000   0.0000000   0.0000000   0.0000000   0.0000000   0.0000000   0.0000000   0.0000000   0.0000000
 NMagM=    0.0000000   2.7928460   0.0000000   2.7928460   2.7928460   2.7928460   0.0000000   2.7928460   2.7928460   0.0000000
 AtZNuc=   6.0000000   1.0000000   6.0000000   1.0000000   1.0000000   1.0000000   6.0000000   1.0000000   1.0000000   6.0000000

  Atom        71          72          73          74          75          76          77          78          79          80
 IAtWgt=          12          12          12           1          12           1          12           1           1           1
 AtmWgt=  12.0000000  12.0000000  12.0000000   1.0078250  12.0000000   1.0078250  12.0000000   1.0078250   1.0078250   1.0078250
 NucSpn=           0           0           0           1           0           1           0           1           1           1
 AtZEff=   0.0000000   0.0000000   0.0000000   0.0000000   0.0000000   0.0000000   0.0000000   0.0000000   0.0000000   0.0000000
 NQMom=    0.0000000   0.0000000   0.0000000   0.0000000   0.0000000   0.0000000   0.0000000   0.0000000   0.0000000   0.0000000
 NMagM=    0.0000000   0.0000000   0.0000000   2.7928460   0.0000000   2.7928460   0.0000000   2.7928460   2.7928460   2.7928460
 AtZNuc=   6.0000000   6.0000000   6.0000000   1.0000000   6.0000000   1.0000000   6.0000000   1.0000000   1.0000000   1.0000000
 Leave Link  101 at Fri Sep  7 05:02:07 2018, MaxMem=  2013265920 cpu:         1.4
 (Enter /scr/programs/g09/l202.exe)
 Stoichiometry    C38H35Cl3P2PtSn
 Framework group  C1[X(C38H35Cl3P2PtSn)]
 Deg. of freedom   234
 Full point group                 C1      NOp   1
 Largest Abelian subgroup         C1      NOp   1
 Largest concise Abelian subgroup C1      NOp   1
                         Standard orientation:                         
 ---------------------------------------------------------------------
 Center     Atomic      Atomic             Coordinates (Angstroms)
 Number     Number       Type             X           Y           Z
 ---------------------------------------------------------------------
      1         78           0        0.124401    0.324503   -0.147109
      2          1           0        0.405972    1.757592   -0.718867
      3         50           0       -0.397229   -2.131380    0.978440
      4         15           0       -2.127415    0.835239   -0.596118
      5         15           0        2.472736    0.157302    0.087241
      6         17           0       -2.039284   -2.209436    2.798226
      7         17           0       -1.200402   -4.045057   -0.310650
      8         17           0        1.415977   -3.322378    2.154780
      9          6           0       -3.103865    1.371417    0.861585
     10          6           0       -4.492452    1.576388    0.772465
     11          6           0       -2.447211    1.640091    2.074608
     12          6           0       -5.207777    2.042208    1.877715
     13          1           0       -5.023742    1.368202   -0.158697
     14          6           0       -3.164306    2.112196    3.178581
     15          1           0       -1.369864    1.482131    2.152653
     16          6           0       -4.544822    2.314519    3.080892
     17          1           0       -6.288138    2.193737    1.797865
     18          1           0       -2.642571    2.320235    4.114389
     19          1           0       -5.107896    2.682819    3.941999
     20          6           0       -3.044726   -0.561396   -1.370144
     21          6           0       -2.749421   -0.899296   -2.704017
     22          6           0       -3.966242   -1.344768   -0.654796
     23          6           0       -3.386533   -1.979514   -3.317434
     24          1           0       -2.010111   -0.329369   -3.272774
     25          6           0       -4.599829   -2.426450   -1.274731
     26          1           0       -4.181106   -1.129206    0.393603
     27          6           0       -4.319021   -2.741968   -2.605705
     28          1           0       -3.147755   -2.227684   -4.353210
     29          1           0       -5.311744   -3.029600   -0.706572
     30          1           0       -4.813385   -3.589531   -3.086841
     31          6           0       -2.392241    2.210393   -1.851683
     32          1           0       -3.475278    2.230054   -2.048161
     33          1           0       -1.898044    1.868580   -2.772714
     34          6           0       -1.888934    3.577866   -1.462361
     35          6           0       -0.635284    4.035850   -1.903997
     36          6           0       -2.672262    4.436471   -0.669840
     37          6           0       -0.172271    5.309505   -1.555455
     38          1           0       -0.019637    3.394458   -2.539506
     39          6           0       -2.210540    5.708630   -0.319227
     40          1           0       -3.657489    4.109463   -0.329552
     41          6           0       -0.957162    6.148539   -0.758086
     42          1           0        0.804138    5.647253   -1.912692
     43          1           0       -2.837455    6.360791    0.294823
     44          1           0       -0.597613    7.144734   -0.486897
     45          6           0        3.429501    1.521524   -0.713059
     46          6           0        3.141297    2.841019   -0.316983
     47          6           0        4.436844    1.303553   -1.665680
     48          6           0        3.849531    3.915697   -0.855317
     49          1           0        2.357487    3.031803    0.418631
     50          6           0        5.138247    2.384602   -2.213794
     51          1           0        4.692800    0.296048   -1.997990
     52          6           0        4.849748    3.690153   -1.808975
     53          1           0        3.616198    4.933356   -0.530757
     54          1           0        5.916102    2.197071   -2.959518
     55          1           0        5.402488    4.531214   -2.234287
     56          6           0        3.051974    0.244321    1.834856
     57          6           0        4.357491   -0.142872    2.190224
     58          6           0        2.187130    0.723467    2.832006
     59          6           0        4.781090   -0.060913    3.519062
     60          1           0        5.056369   -0.513101    1.437704
     61          6           0        2.618175    0.814688    4.160074
     62          1           0        1.169086    1.023180    2.571532
     63          6           0        3.912550    0.417201    4.506354
     64          1           0        5.793103   -0.375984    3.785408
     65          1           0        1.932295    1.187087    4.925147
     66          1           0        4.246788    0.480253    5.545134
     67          6           0        3.184828   -1.437285   -0.548227
     68          1           0        4.271527   -1.305427   -0.678443
     69          1           0        3.054916   -2.139100    0.288865
     70          6           0        2.560604   -2.025850   -1.800019
     71          6           0        2.334741   -3.412103   -1.855431
     72          6           0        2.225363   -1.252322   -2.925861
     73          6           0        1.804678   -4.010375   -3.002000
     74          1           0        2.564631   -4.028745   -0.982800
     75          6           0        1.696935   -1.849340   -4.074610
     76          1           0        2.372937   -0.171175   -2.915193
     77          6           0        1.487107   -3.231034   -4.118529
     78          1           0        1.630823   -5.089635   -3.017139
     79          1           0        1.446903   -1.227786   -4.938740
     80          1           0        1.071099   -3.696143   -5.015555
 ---------------------------------------------------------------------
 Rotational constants (GHZ):      0.0570554      0.0535898      0.0433711
 Leave Link  202 at Fri Sep  7 05:02:07 2018, MaxMem=  2013265920 cpu:         0.0
 (Enter /scr/programs/g09/l301.exe)
 General basis read from cards:  (5D, 7F)
 Centers:       2     13     15     17     18     19     24     26     28     29
 Centers:      30     32     33     38     40     42     43     44     49     51
 Centers:      53     54     55     60     62     64     65     66     68     69
 Centers:      74     76     78     79     80
 S 5 1.00
     Exponent=  2.8295215633D+02 Coefficients=  4.3000000000D-04
     Exponent=  8.7062201949D+01 Coefficients=  5.1000000000D-04
     Exponent=  2.6788369830D+01 Coefficients=  6.1600000000D-03
     Exponent=  8.2425753324D+00 Coefficients=  1.3030000000D-02
     Exponent=  2.5361770254D+00 Coefficients=  9.9490000000D-02
 S 1 1.00
     Exponent=  7.8036216165D-01 Coefficients=  1.0000000000D+00
 S 1 1.00
     Exponent=  2.4011143435D-01 Coefficients=  1.0000000000D+00
 P 1 1.00
     Exponent=  8.8150000000D-01 Coefficients=  1.0000000000D+00
 P 1 1.00
     Exponent=  1.7989200000D-01 Coefficients=  1.0000000000D+00
 ****
 Centers:       9     10     11     12     14     16     20     21     22     23
 Centers:      25     27     31     34     35     36     37     39     41     45
 Centers:      46     47     48     50     52     56     57     58     59     61
 Centers:      63     67     70     71     72     73     75     77
 S 6 1.00
     Exponent=  8.8461235339D+03 Coefficients=  5.3000000000D-04
     Exponent=  2.9487078446D+03 Coefficients=  7.7000000000D-04
     Exponent=  9.8290261488D+02 Coefficients=  4.0500000000D-03
     Exponent=  3.2763420496D+02 Coefficients=  1.4030000000D-02
     Exponent=  1.0921140165D+02 Coefficients=  5.3450000000D-02
     Exponent=  3.6403800551D+01 Coefficients=  1.7027000000D-01
 S 1 1.00
     Exponent=  1.2134600184D+01 Coefficients=  1.0000000000D+00
 S 1 1.00
     Exponent=  4.0448667279D+00 Coefficients=  1.0000000000D+00
 S 1 1.00
     Exponent=  1.3482889093D+00 Coefficients=  1.0000000000D+00
 S 1 1.00
     Exponent=  4.4942963643D-01 Coefficients=  1.0000000000D+00
 S 1 1.00
     Exponent=  1.4980987881D-01 Coefficients=  1.0000000000D+00
 P 4 1.00
     Exponent=  3.7294093393D+01 Coefficients=  3.9600000000D-03
     Exponent=  1.1475105659D+01 Coefficients=  1.8890000000D-02
     Exponent=  3.5308017414D+00 Coefficients=  9.4610000000D-02
     Exponent=  1.0864005358D+00 Coefficients=  3.1889000000D-01
 P 1 1.00
     Exponent=  3.3427708794D-01 Coefficients=  1.0000000000D+00
 P 1 1.00
     Exponent=  1.0285448860D-01 Coefficients=  1.0000000000D+00
 D 1 1.00
     Exponent=  4.7750000000D-01 Coefficients=  1.0000000000D+00
 D 1 1.00
     Exponent=  1.1998000000D-01 Coefficients=  1.0000000000D+00
 ****
 Centers:       4      5
 S 7 1.00
     Exponent=  5.9538004301D+04 Coefficients=  9.5000000000D-04
     Exponent=  2.1650183382D+04 Coefficients=  6.1000000000D-04
     Exponent=  7.8727939572D+03 Coefficients=  3.7500000000D-03
     Exponent=  2.8628341663D+03 Coefficients=  9.6300000000D-03
     Exponent=  1.0410306059D+03 Coefficients=  3.2430000000D-02
     Exponent=  3.7855658397D+02 Coefficients=  9.9500000000D-02
     Exponent=  1.3765693962D+02 Coefficients=  2.6570000000D-01
 S 1 1.00
     Exponent=  5.0057068954D+01 Coefficients=  1.0000000000D+00
 S 1 1.00
     Exponent=  1.8202570529D+01 Coefficients=  1.0000000000D+00
 S 1 1.00
     Exponent=  6.6191165560D+00 Coefficients=  1.0000000000D+00
 S 1 1.00
     Exponent=  2.4069514749D+00 Coefficients=  1.0000000000D+00
 S 1 1.00
     Exponent=  8.7525508178D-01 Coefficients=  1.0000000000D+00
 S 1 1.00
     Exponent=  3.1827457519D-01 Coefficients=  1.0000000000D+00
 S 1 1.00
     Exponent=  1.1573620916D-01 Coefficients=  1.0000000000D+00
 S 1 1.00
     Exponent=  4.2085894240D-02 Coefficients=  1.0000000000D+00
 P 5 1.00
     Exponent=  4.8799672315D+02 Coefficients=  2.1600000000D-03
     Exponent=  1.6266557438D+02 Coefficients=  9.7900000000D-03
     Exponent=  5.4221858128D+01 Coefficients=  5.4850000000D-02
     Exponent=  1.8073952709D+01 Coefficients=  2.1770000000D-01
     Exponent=  6.0246509031D+00 Coefficients=  4.8978000000D-01
 P 1 1.00
     Exponent=  2.0082169677D+00 Coefficients=  1.0000000000D+00
 P 1 1.00
     Exponent=  6.6940565590D-01 Coefficients=  1.0000000000D+00
 P 1 1.00
     Exponent=  2.2313521863D-01 Coefficients=  1.0000000000D+00
 P 1 1.00
     Exponent=  7.4378406211D-02 Coefficients=  1.0000000000D+00
 P 1 1.00
     Exponent=  2.4792802070D-02 Coefficients=  1.0000000000D+00
 D 1 1.00
     Exponent=  3.5395000000D-01 Coefficients=  1.0000000000D+00
 D 1 1.00
     Exponent=  8.9098000000D-02 Coefficients=  1.0000000000D+00
 ****
 Centers:       6      7      8
 S 7 1.00
     Exponent=  7.7142817164D+04 Coefficients=  1.0600000000D-03
     Exponent=  2.8051933514D+04 Coefficients=  6.4000000000D-04
     Exponent=  1.0200703096D+04 Coefficients=  3.9600000000D-03
     Exponent=  3.7093465804D+03 Coefficients=  9.8300000000D-03
     Exponent=  1.3488533020D+03 Coefficients=  3.2690000000D-02
     Exponent=  4.9049210981D+02 Coefficients=  9.9520000000D-02
     Exponent=  1.7836076720D+02 Coefficients=  2.6555000000D-01
 S 1 1.00
     Exponent=  6.4858460801D+01 Coefficients=  1.0000000000D+00
 S 1 1.00
     Exponent=  2.3584894837D+01 Coefficients=  1.0000000000D+00
 S 1 1.00
     Exponent=  8.5763253951D+00 Coefficients=  1.0000000000D+00
 S 1 1.00
     Exponent=  3.1186637801D+00 Coefficients=  1.0000000000D+00
 S 1 1.00
     Exponent=  1.1340595564D+00 Coefficients=  1.0000000000D+00
 S 1 1.00
     Exponent=  4.1238529323D-01 Coefficients=  1.0000000000D+00
 S 1 1.00
     Exponent=  1.4995828845D-01 Coefficients=  1.0000000000D+00
 S 1 1.00
     Exponent=  5.4530286708D-02 Coefficients=  1.0000000000D+00
 P 5 1.00
     Exponent=  6.9498536057D+02 Coefficients=  2.0000000000D-03
     Exponent=  2.3166178686D+02 Coefficients=  8.9500000000D-03
     Exponent=  7.7220595619D+01 Coefficients=  5.1130000000D-02
     Exponent=  2.5740198540D+01 Coefficients=  2.1011000000D-01
     Exponent=  8.5800661799D+00 Coefficients=  4.9738000000D-01
 P 1 1.00
     Exponent=  2.8600220600D+00 Coefficients=  1.0000000000D+00
 P 1 1.00
     Exponent=  9.5334068665D-01 Coefficients=  1.0000000000D+00
 P 1 1.00
     Exponent=  3.1778022888D-01 Coefficients=  1.0000000000D+00
 P 1 1.00
     Exponent=  1.0592674296D-01 Coefficients=  1.0000000000D+00
 P 1 1.00
     Exponent=  3.5308914320D-02 Coefficients=  1.0000000000D+00
 D 1 1.00
     Exponent=  5.5696000000D-01 Coefficients=  1.0000000000D+00
 D 1 1.00
     Exponent=  1.5619100000D-01 Coefficients=  1.0000000000D+00
 ****
 Centers:       3
 S 8 1.00
     Exponent=  7.5448214551D+05 Coefficients=  4.4300000000D-03
     Exponent=  3.3532539800D+05 Coefficients=  1.9800000000D-03
     Exponent=  1.4903351022D+05 Coefficients=  9.0500000000D-03
     Exponent=  6.6237115655D+04 Coefficients=  4.8700000000D-03
     Exponent=  2.9438718069D+04 Coefficients=  2.0770000000D-02
     Exponent=  1.3083874697D+04 Coefficients=  3.2900000000D-02
     Exponent=  5.8150554210D+03 Coefficients=  7.7010000000D-02
     Exponent=  2.5844690760D+03 Coefficients=  1.5160000000D-01
 S 1 1.00
     Exponent=  1.1486529227D+03 Coefficients=  1.0000000000D+00
 S 1 1.00
     Exponent=  5.1051241008D+02 Coefficients=  1.0000000000D+00
 S 1 1.00
     Exponent=  2.2689440448D+02 Coefficients=  1.0000000000D+00
 S 1 1.00
     Exponent=  1.0084195755D+02 Coefficients=  1.0000000000D+00
 S 1 1.00
     Exponent=  4.4818647798D+01 Coefficients=  1.0000000000D+00
 S 1 1.00
     Exponent=  1.9919399021D+01 Coefficients=  1.0000000000D+00
 S 1 1.00
     Exponent=  8.8530662317D+00 Coefficients=  1.0000000000D+00
 S 1 1.00
     Exponent=  3.9346961030D+00 Coefficients=  1.0000000000D+00
 S 1 1.00
     Exponent=  1.7487538235D+00 Coefficients=  1.0000000000D+00
 S 1 1.00
     Exponent=  7.7722392158D-01 Coefficients=  1.0000000000D+00
 S 1 1.00
     Exponent=  3.4543285403D-01 Coefficients=  1.0000000000D+00
 S 1 1.00
     Exponent=  1.5352571290D-01 Coefficients=  1.0000000000D+00
 S 1 1.00
     Exponent=  6.8233650180D-02 Coefficients=  1.0000000000D+00
 S 1 1.00
     Exponent=  1.3478251887D-02 Coefficients=  1.0000000000D+00
 P 5 1.00
     Exponent=  1.0090658304D+04 Coefficients=  2.7500000000D-03
     Exponent=  4.0362633217D+03 Coefficients=  4.1800000000D-03
     Exponent=  1.6145053287D+03 Coefficients=  2.0890000000D-02
     Exponent=  6.4580213147D+02 Coefficients=  7.1370000000D-02
     Exponent=  2.5832085259D+02 Coefficients=  2.2613000000D-01
 P 1 1.00
     Exponent=  1.0332834104D+02 Coefficients=  1.0000000000D+00
 P 1 1.00
     Exponent=  4.1331336414D+01 Coefficients=  1.0000000000D+00
 P 1 1.00
     Exponent=  1.6532534566D+01 Coefficients=  1.0000000000D+00
 P 1 1.00
     Exponent=  6.6130138263D+00 Coefficients=  1.0000000000D+00
 P 1 1.00
     Exponent=  2.6452055305D+00 Coefficients=  1.0000000000D+00
 P 1 1.00
     Exponent=  1.0580822122D+00 Coefficients=  1.0000000000D+00
 P 1 1.00
     Exponent=  4.2323288488D-01 Coefficients=  1.0000000000D+00
 P 1 1.00
     Exponent=  1.6929315395D-01 Coefficients=  1.0000000000D+00
 P 1 1.00
     Exponent=  6.7717261581D-02 Coefficients=  1.0000000000D+00
 P 1 1.00
     Exponent=  2.7086904632D-02 Coefficients=  1.0000000000D+00
 P 1 1.00
     Exponent=  1.0834761853D-02 Coefficients=  1.0000000000D+00
 D 4 1.00
     Exponent=  5.5430250651D+02 Coefficients=  4.3700000000D-03
     Exponent=  2.0156454782D+02 Coefficients=  2.5110000000D-02
     Exponent=  7.3296199207D+01 Coefficients=  1.3316000000D-01
     Exponent=  2.6653163348D+01 Coefficients=  3.8900000000D-01
 D 1 1.00
     Exponent=  9.6920593993D+00 Coefficients=  1.0000000000D+00
 D 1 1.00
     Exponent=  3.5243852361D+00 Coefficients=  1.0000000000D+00
 D 1 1.00
     Exponent=  1.2815946313D+00 Coefficients=  1.0000000000D+00
 D 1 1.00
     Exponent=  4.6603441139D-01 Coefficients=  1.0000000000D+00
 D 1 1.00
     Exponent=  1.6946705869D-01 Coefficients=  1.0000000000D+00
 F 1 1.00
     Exponent=  1.3140000000D+00 Coefficients=  1.0000000000D+00
 F 1 1.00
     Exponent=  1.9993000000D-01 Coefficients=  1.0000000000D+00
 ****
 Centers:       1
 S 9 1.00
     Exponent=  2.1644816090D+06 Coefficients=  1.2320000000D-02
     Exponent=  1.0822408045D+06 Coefficients=  1.2970000000D-02
     Exponent=  5.4112040224D+05 Coefficients=  2.6370000000D-02
     Exponent=  2.7056020112D+05 Coefficients=  9.0400000000D-03
     Exponent=  1.3528010056D+05 Coefficients=  3.4980000000D-02
     Exponent=  6.7640050280D+04 Coefficients=  1.2220000000D-02
     Exponent=  3.3820025140D+04 Coefficients=  6.0520000000D-02
     Exponent=  1.6910012570D+04 Coefficients=  6.4930000000D-02
     Exponent=  8.4550062850D+03 Coefficients=  1.3819000000D-01
 S 1 1.00
     Exponent=  4.2275031425D+03 Coefficients=  1.0000000000D+00
 S 1 1.00
     Exponent=  2.1137515713D+03 Coefficients=  1.0000000000D+00
 S 1 1.00
     Exponent=  1.0568757856D+03 Coefficients=  1.0000000000D+00
 S 1 1.00
     Exponent=  5.2843789281D+02 Coefficients=  1.0000000000D+00
 S 1 1.00
     Exponent=  2.6421894641D+02 Coefficients=  1.0000000000D+00
 S 1 1.00
     Exponent=  1.3210947320D+02 Coefficients=  1.0000000000D+00
 S 1 1.00
     Exponent=  6.6054736602D+01 Coefficients=  1.0000000000D+00
 S 1 1.00
     Exponent=  3.3027368301D+01 Coefficients=  1.0000000000D+00
 S 1 1.00
     Exponent=  1.6513684150D+01 Coefficients=  1.0000000000D+00
 S 1 1.00
     Exponent=  8.2568420752D+00 Coefficients=  1.0000000000D+00
 S 1 1.00
     Exponent=  4.1284210376D+00 Coefficients=  1.0000000000D+00
 S 1 1.00
     Exponent=  2.0642105188D+00 Coefficients=  1.0000000000D+00
 S 1 1.00
     Exponent=  1.0321052594D+00 Coefficients=  1.0000000000D+00
 S 1 1.00
     Exponent=  5.1605262970D-01 Coefficients=  1.0000000000D+00
 S 1 1.00
     Exponent=  2.5802631485D-01 Coefficients=  1.0000000000D+00
 S 1 1.00
     Exponent=  1.2901315743D-01 Coefficients=  1.0000000000D+00
 S 1 1.00
     Exponent=  6.4506578713D-02 Coefficients=  1.0000000000D+00
 P 7 1.00
     Exponent=  3.2357915258D+04 Coefficients=  5.0200000000D-03
     Exponent=  1.4381295670D+04 Coefficients=  2.0200000000D-03
     Exponent=  6.3916869645D+03 Coefficients=  1.8070000000D-02
     Exponent=  2.8407497620D+03 Coefficients=  3.6620000000D-02
     Exponent=  1.2625554498D+03 Coefficients=  1.1172000000D-01
     Exponent=  5.6113575545D+02 Coefficients=  2.5586000000D-01
     Exponent=  2.4939366909D+02 Coefficients=  4.2608000000D-01
 P 1 1.00
     Exponent=  1.1084163071D+02 Coefficients=  1.0000000000D+00
 P 1 1.00
     Exponent=  4.9262946981D+01 Coefficients=  1.0000000000D+00
 P 1 1.00
     Exponent=  2.1894643103D+01 Coefficients=  1.0000000000D+00
 P 1 1.00
     Exponent=  9.7309524900D+00 Coefficients=  1.0000000000D+00
 P 1 1.00
     Exponent=  4.3248677733D+00 Coefficients=  1.0000000000D+00
 P 1 1.00
     Exponent=  1.9221634548D+00 Coefficients=  1.0000000000D+00
 P 1 1.00
     Exponent=  8.5429486881D-01 Coefficients=  1.0000000000D+00
 P 1 1.00
     Exponent=  3.7968660836D-01 Coefficients=  1.0000000000D+00
 P 1 1.00
     Exponent=  1.6874960372D-01 Coefficients=  1.0000000000D+00
 P 1 1.00
     Exponent=  7.4999823874D-02 Coefficients=  1.0000000000D+00
 P 1 1.00
     Exponent=  3.3333255055D-02 Coefficients=  1.0000000000D+00
 D 5 1.00
     Exponent=  1.9119003508D+03 Coefficients=  4.3300000000D-03
     Exponent=  7.6476014031D+02 Coefficients=  1.7780000000D-02
     Exponent=  3.0590405613D+02 Coefficients=  8.9710000000D-02
     Exponent=  1.2236162245D+02 Coefficients=  3.1123000000D-01
     Exponent=  4.8944648980D+01 Coefficients=  5.3206000000D-01
 D 1 1.00
     Exponent=  1.9577859592D+01 Coefficients=  1.0000000000D+00
 D 1 1.00
     Exponent=  7.8311438368D+00 Coefficients=  1.0000000000D+00
 D 1 1.00
     Exponent=  3.1324575347D+00 Coefficients=  1.0000000000D+00
 D 1 1.00
     Exponent=  1.2529830139D+00 Coefficients=  1.0000000000D+00
 D 1 1.00
     Exponent=  5.0119320556D-01 Coefficients=  1.0000000000D+00
 D 1 1.00
     Exponent=  2.0047728222D-01 Coefficients=  1.0000000000D+00
 D 1 1.00
     Exponent=  8.0190912889D-02 Coefficients=  1.0000000000D+00
 D 1 1.00
     Exponent=  3.2076365156D-02 Coefficients=  1.0000000000D+00
 F 4 1.00
     Exponent=  8.2289680979D+01 Coefficients=  6.1870000000D-02
     Exponent=  2.9923520356D+01 Coefficients=  2.4823000000D-01
     Exponent=  1.0881280130D+01 Coefficients=  4.9956000000D-01
     Exponent=  3.9568291380D+00 Coefficients=  4.0380000000D-01
 F 1 1.00
     Exponent=  1.4388469593D+00 Coefficients=  1.0000000000D+00
 F 1 1.00
     Exponent=  5.2321707610D-01 Coefficients=  1.0000000000D+00
 G 1 1.00
     Exponent=  2.6700000000D+00 Coefficients=  1.0000000000D+00
 G 1 1.00
     Exponent=  9.0960000000D-01 Coefficients=  1.0000000000D+00
 ****
 Ernie: Thresh=  0.10000D-02 Tol=  0.10000D-05 Strict=F.
 There are  1811 symmetry adapted cartesian basis functions of A   symmetry.
 There are  1683 symmetry adapted basis functions of A   symmetry.
  1683 basis functions,  2690 primitive gaussians,  1811 cartesian basis functions
   236 alpha electrons      236 beta electrons
       nuclear repulsion energy     12102.2521858971 Hartrees.
 IExCor= 1009 DFT=T Ex=PBE Corr=PBE ExCW=0 ScaHFX=  0.000000
 ScaDFX=  1.000000  1.000000  1.000000  1.000000 ScalE2=  1.000000  1.000000
 IRadAn=      0 IRanWt=     -1 IRanGd=            0 ICorTp=0 IEmpDi=  4
 NAtoms=   80 NActive=   80 NUniq=   80 SFac= 1.00D+00 NAtFMM=   60 NAOKFM=T Big=T
 Integral buffers will be    131072 words long.
 Raffenetti 2 integral format.
 Two-electron integral symmetry is turned on.
 ------------------------------------------------------------------------------
 Polarizable Continuum Model (PCM)
 =================================
 Model                : PCM (using non-symmetric T matrix).
 Atomic radii         : UFF (Universal Force Field).
 Polarization charges : Total charges.
 Charge compensation  : None.
 Solution method      : On-the-fly selection.
 Cavity type          : Scaled VdW (van der Waals Surface) (Alpha=1.100).
 Cavity algorithm     : GePol (No added spheres)
                        Default sphere list used, NSphG=   80.
                        Lebedev-Laikov grids with approx.  5.0 points / Ang**2.
                        Smoothing algorithm: Karplus/York (Gamma=1.0000).
                        Polarization charges: spherical gaussians, with
                                              point-specific exponents (IZeta= 3).
                        Self-potential: point-specific (ISelfS= 7).
                        Self-field    : sphere-specific E.n sum rule (ISelfD= 2).
 Solvent              : Dichloromethane, Eps=   8.930000 Eps(inf)=   2.028346
 ------------------------------------------------------------------------------
 GePol: Number of generator spheres                  =      80
 GePol: Total number of spheres                      =      80
 GePol: Number of exposed spheres                    =      80 (100.00%)
 GePol: Number of points                             =    6020
 GePol: Average weight of points                     =       0.13
 GePol: Minimum weight of points                     =   0.14D-10
 GePol: Maximum weight of points                     =    0.21838
 GePol: Number of points with low weight             =     378
 GePol: Fraction of low-weight points (<1% of avg)   =       6.28%
 GePol: Cavity surface area                          =    790.745 Ang**2
 GePol: Cavity volume                                =    954.135 Ang**3
 Leave Link  301 at Fri Sep  7 05:02:07 2018, MaxMem=  2013265920 cpu:         1.6
 (Enter /scr/programs/g09/l302.exe)
 NPDir=0 NMtPBC=     1 NCelOv=     1 NCel=       1 NClECP=     1 NCelD=      1
         NCelK=      1 NCelE2=     1 NClLst=     1 CellRange=     0.0.
 One-electron integrals computed using PRISM.
 NBasis=  1683 RedAO= T EigKep=  1.56D-06  NBF=  1683
 NBsUse=  1683 1.00D-06 EigRej= -1.00D+00 NBFU=  1683
 Precomputing XC quadrature grid using
 IXCGrd= 4 IRadAn=           0 IRanWt=          -1 IRanGd=           0 AccXCQ= 0.00D+00.
 Defaulting to unpruned grid for atomic number  78.
 Generated NRdTot=       0 NPtTot=           0 NUsed=           0 NTot=          32
 NSgBfM=  1576  1576  1576  1576  1576 MxSgAt=    80 MxSgA2=    80.
 Leave Link  302 at Fri Sep  7 05:02:23 2018, MaxMem=  2013265920 cpu:       126.9
 (Enter /scr/programs/g09/l308.exe)
 Leave Link  308 at Fri Sep  7 05:02:24 2018, MaxMem=  2013265920 cpu:        10.8
 (Enter /scr/programs/g09/l303.exe)
 DipDrv:  MaxL=1.
 Leave Link  303 at Fri Sep  7 05:02:25 2018, MaxMem=  2013265920 cpu:         6.3
 (Enter /scr/programs/g09/l401.exe)
 ExpMin= 1.08D-02 ExpMax= 2.16D+06 ExpMxC= 2.16D+06 IAcc=4 IRadAn=    199590 AccDes= 0.00D+00
 Harris functional with IExCor= 1009 and IRadAn=  199590 diagonalized for initial guess.
 HarFok:  IExCor= 1009 AccDes= 0.00D+00 IRadAn=    199590 IDoV= 1 UseB2=F ITyADJ=14
 ICtDFT=  3500011 ScaDFX=  1.000000  1.000000  1.000000  1.000000
 FoFCou: FMM=F IPFlag=           0 FMFlag=      100000 FMFlg1=        2001
         NFxFlg=           0 DoJE=T BraDBF=F KetDBF=T FulRan=T
         wScrn=  0.000000 ICntrl=     500 IOpCl=  0 I1Cent=   200000004 NGrid=           0
         NMat0=    1 NMatS0=      1 NMatT0=    0 NMatD0=    1 NMtDS0=    0 NMtDT0=    0
 Petite list used in FoFCou.
 Harris En= -26635.7267558675    
 JPrj=0 DoOrth=F DoCkMO=F.
 Leave Link  401 at Fri Sep  7 05:06:55 2018, MaxMem=  2013265920 cpu:      2155.5
 (Enter /scr/programs/g09/l502.exe)
 Closed shell SCF:
 Using DIIS extrapolation, IDIIS=  1040.
 Integral symmetry usage will be decided dynamically.
 IVT=    10873643 IEndB=    10873643 NGot=  2013265920 MDV=  2006675810
 LenX=  2006675810 LenY=  2003394278
 Requested convergence on RMS density matrix=1.00D-04 within1000 cycles.
 Requested convergence on MAX density matrix=1.00D-02.
 Requested convergence on             energy=1.00D-02.
 No special actions if energy rises.
 Fock matrices will be formed incrementally for  20 cycles.

 Cycle   1  Pass 1  IDiag  1:
 FoFJK:  IHMeth= 1 ICntrl=     500 DoSepK=F KAlg= 0 I1Cent=   0 FoldK=F
 IRaf= 650000000 NMat=   1 IRICut=       1 DoRegI=T DoRafI=F ISym2E= 0.
 FoFCou: FMM=T IPFlag=           0 FMFlag=      100000 FMFlg1=        2001
         NFxFlg=           0 DoJE=T BraDBF=F KetDBF=F FulRan=T
         wScrn=  0.000000 ICntrl=     500 IOpCl=  0 I1Cent=           0 NGrid=           0
         NMat0=    1 NMatS0=      1 NMatT0=    0 NMatD0=    1 NMtDS0=    0 NMtDT0=    0
 Symmetry not used in FoFCou.
 FMM levels:  10  Number of levels for PrismC:   9
 Defaulting to unpruned grid for atomic number  78.
 Defaulting to unpruned grid for atomic number  78.
 Defaulting to unpruned grid for atomic number  78.
 Defaulting to unpruned grid for atomic number  78.
 Defaulting to unpruned grid for atomic number  78.
 Defaulting to unpruned grid for atomic number  78.
 Defaulting to unpruned grid for atomic number  78.
 Defaulting to unpruned grid for atomic number  78.
 Inv3:  Mode=1 IEnd=   108721200.
 Iteration    1 A*A^-1 deviation from unit magnitude is 1.23D-14 for   4729.
 Iteration    1 A*A^-1 deviation from orthogonality  is 1.30D-14 for   4228   3962.
 Iteration    1 A^-1*A deviation from unit magnitude is 1.91D-14 for   4729.
 Iteration    1 A^-1*A deviation from orthogonality  is 1.76D-09 for   3409   3375.
 Iteration    2 A*A^-1 deviation from unit magnitude is 1.05D-14 for    298.
 Iteration    2 A*A^-1 deviation from orthogonality  is 1.25D-14 for   4224   1845.
 Iteration    2 A^-1*A deviation from unit magnitude is 2.00D-15 for   5549.
 Iteration    2 A^-1*A deviation from orthogonality  is 8.88D-16 for   5547   3792.
 E= -26616.0062213918    
 DIIS: error= 2.20D-01 at cycle   1 NSaved=   1.
 NSaved= 1 IEnMin= 1 EnMin= -26616.0062213918     IErMin= 1 ErrMin= 2.20D-01
 ErrMax= 2.20D-01  0.00D+00 EMaxC= 1.00D-01 BMatC= 3.34D+02 BMatP= 3.34D+02
 IDIUse=3 WtCom= 0.00D+00 WtEn= 1.00D+00
 Coeff-Com:  0.100D+01
 Coeff-En:   0.100D+01
 Coeff:      0.100D+01
 Gap=     0.615 Goal=   None    Shift=    0.000
 GapD=    0.615 DampG=2.000 DampE=0.125 DampFc=0.2500 IDamp=-1.
 Damping current iteration by 2.50D-01
 RMSDP=1.02D-02 MaxDP=2.62D+00              OVMax= 7.69D-01

 Cycle   2  Pass 1  IDiag  1:
 RMSU=  2.54D-03    CP:  1.03D+00
 E= -26617.6123934094     Delta-E=       -1.606172017549 Rises=F Damp=T
 DIIS: error= 1.51D-01 at cycle   2 NSaved=   2.
 NSaved= 2 IEnMin= 2 EnMin= -26617.6123934094     IErMin= 2 ErrMin= 1.51D-01
 ErrMax= 1.51D-01  0.00D+00 EMaxC= 1.00D-01 BMatC= 1.61D+02 BMatP= 3.34D+02
 IDIUse=3 WtCom= 0.00D+00 WtEn= 1.00D+00
 Coeff-Com: -0.199D+01 0.299D+01
 Coeff-En:   0.709D-01 0.929D+00
 Coeff:      0.709D-01 0.929D+00
 Gap=    -0.019 Goal=   None    Shift=    0.000
 RMSDP=3.04D-03 MaxDP=5.90D-01 DE=-1.61D+00 OVMax= 7.79D-01

 Cycle   3  Pass 1  IDiag  1:
 RMSU=  2.78D-03    CP:  9.30D-01  7.84D-01
 E= -26619.8877713056     Delta-E=       -2.275377896251 Rises=F Damp=F
 DIIS: error= 5.60D-02 at cycle   3 NSaved=   3.
 NSaved= 3 IEnMin= 3 EnMin= -26619.8877713056     IErMin= 3 ErrMin= 5.60D-02
 ErrMax= 5.60D-02  0.00D+00 EMaxC= 1.00D-01 BMatC= 1.10D+01 BMatP= 1.61D+02
 IDIUse=3 WtCom= 4.40D-01 WtEn= 5.60D-01
 EnCoef did   100 forward-backward iterations
 Coeff-Com:  0.978D+00-0.119D+01 0.121D+01
 Coeff-En:   0.205D+00 0.249D-02 0.792D+00
 Coeff:      0.546D+00-0.523D+00 0.977D+00
 Gap=     0.348 Goal=   None    Shift=    0.000
 RMSDP=8.34D-03 MaxDP=2.01D+00 DE=-2.28D+00 OVMax= 7.62D-01

 Cycle   4  Pass 1  IDiag  1:
 RMSU=  6.65D-03    CP:  1.17D+00  1.49D+00 -3.91D-01
 E= -26611.8203947310     Delta-E=        8.067376574647 Rises=F Damp=F
 DIIS: error= 4.09D-02 at cycle   4 NSaved=   4.
 NSaved= 4 IEnMin= 3 EnMin= -26619.8877713056     IErMin= 4 ErrMin= 4.09D-02
 ErrMax= 4.09D-02  0.00D+00 EMaxC= 1.00D-01 BMatC= 7.96D+00 BMatP= 1.10D+01
 IDIUse=3 WtCom= 5.91D-01 WtEn= 4.09D-01
 EnCoef did     6 forward-backward iterations
 Coeff-Com:  0.614D+00-0.764D+00 0.777D+00 0.374D+00
 Coeff-En:   0.165D+00 0.000D+00 0.753D+00 0.821D-01
 Coeff:      0.430D+00-0.452D+00 0.767D+00 0.255D+00
 Gap=     0.020 Goal=   None    Shift=    0.000
 RMSDP=7.07D-03 MaxDP=1.83D+00 DE= 8.07D+00 OVMax= 7.77D-01

 Cycle   5  Pass 1  IDiag  1:
 RMSU=  1.43D-03    CP:  9.70D-01  5.20D-01  4.65D-01  1.60D-01
 E= -26621.2147590836     Delta-E=       -9.394364352622 Rises=F Damp=F
 DIIS: error= 1.55D-02 at cycle   5 NSaved=   5.
 NSaved= 5 IEnMin= 5 EnMin= -26621.2147590836     IErMin= 5 ErrMin= 1.55D-02
 ErrMax= 1.55D-02  0.00D+00 EMaxC= 1.00D-01 BMatC= 5.74D-01 BMatP= 7.96D+00
 IDIUse=3 WtCom= 8.45D-01 WtEn= 1.55D-01
 Coeff-Com: -0.456D-01 0.784D-01 0.174D+00 0.696D-01 0.723D+00
 Coeff-En:   0.000D+00 0.000D+00 0.584D-01 0.000D+00 0.942D+00
 Coeff:     -0.385D-01 0.662D-01 0.156D+00 0.587D-01 0.757D+00
 Gap=     0.172 Goal=   None    Shift=    0.000
 RMSDP=1.85D-03 MaxDP=2.51D-01 DE=-9.39D+00 OVMax= 2.08D-01

 Cycle   6  Pass 1  IDiag  1:
 RMSU=  1.01D-03    CP:  9.52D-01  5.83D-01  6.34D-01  9.97D-02  2.22D-02
 E= -26621.2960682520     Delta-E=       -0.081309168418 Rises=F Damp=F
 DIIS: error= 4.44D-03 at cycle   6 NSaved=   6.
 NSaved= 6 IEnMin= 6 EnMin= -26621.2960682520     IErMin= 6 ErrMin= 4.44D-03
 ErrMax= 4.44D-03  0.00D+00 EMaxC= 1.00D-01 BMatC= 1.82D-01 BMatP= 5.74D-01
 IDIUse=3 WtCom= 9.56D-01 WtEn= 4.44D-02
 Coeff-Com: -0.763D-01 0.106D+00 0.241D-01 0.114D-01 0.474D+00 0.461D+00
 Coeff-En:   0.000D+00 0.000D+00 0.000D+00 0.000D+00 0.409D+00 0.591D+00
 Coeff:     -0.729D-01 0.102D+00 0.230D-01 0.109D-01 0.471D+00 0.467D+00
 Gap=     0.128 Goal=   None    Shift=    0.000
 RMSDP=8.34D-04 MaxDP=6.77D-02 DE=-8.13D-02 OVMax= 8.69D-02

 Cycle   7  Pass 1  IDiag  1:
 RMSU=  3.50D-04    CP:  9.60D-01  5.93D-01  5.98D-01  1.25D-01  4.13D-01
                    CP:  5.44D-01
 E= -26621.4442863609     Delta-E=       -0.148218108923 Rises=F Damp=F
 DIIS: error= 1.05D-03 at cycle   7 NSaved=   7.
 NSaved= 7 IEnMin= 7 EnMin= -26621.4442863609     IErMin= 7 ErrMin= 1.05D-03
 ErrMax= 1.05D-03  0.00D+00 EMaxC= 1.00D-01 BMatC= 1.40D-02 BMatP= 1.82D-01
 IDIUse=3 WtCom= 9.89D-01 WtEn= 1.05D-02
 Coeff-Com: -0.547D-01 0.750D-01-0.695D-04 0.229D-02 0.255D+00 0.296D+00
 Coeff-Com:  0.427D+00
 Coeff-En:   0.000D+00 0.000D+00 0.000D+00 0.000D+00 0.000D+00 0.000D+00
 Coeff-En:   0.100D+01
 Coeff:     -0.542D-01 0.742D-01-0.687D-04 0.227D-02 0.252D+00 0.293D+00
 Coeff:      0.433D+00
 Gap=     0.123 Goal=   None    Shift=    0.000
 RMSDP=2.30D-04 MaxDP=2.96D-02 DE=-1.48D-01 OVMax= 3.06D-02

 Cycle   8  Pass 1  IDiag  1:
 RMSU=  1.65D-04    CP:  9.59D-01  5.92D-01  5.87D-01  1.32D-01  4.32D-01
                    CP:  5.70D-01  5.85D-01
 E= -26621.4567527322     Delta-E=       -0.012466371219 Rises=F Damp=F
 DIIS: error= 3.89D-04 at cycle   8 NSaved=   8.
 NSaved= 8 IEnMin= 8 EnMin= -26621.4567527322     IErMin= 8 ErrMin= 3.89D-04
 ErrMax= 3.89D-04  0.00D+00 EMaxC= 1.00D-01 BMatC= 1.78D-03 BMatP= 1.40D-02
 IDIUse=3 WtCom= 9.96D-01 WtEn= 3.89D-03
 Coeff-Com: -0.142D-01 0.190D-01-0.405D-02 0.164D-02 0.550D-01 0.791D-01
 Coeff-Com:  0.266D+00 0.597D+00
 Coeff-En:   0.000D+00 0.000D+00 0.000D+00 0.000D+00 0.000D+00 0.000D+00
 Coeff-En:   0.130D+00 0.870D+00
 Coeff:     -0.141D-01 0.189D-01-0.404D-02 0.164D-02 0.548D-01 0.788D-01
 Coeff:      0.266D+00 0.598D+00
 Gap=     0.123 Goal=   None    Shift=    0.000
 RMSDP=8.96D-05 MaxDP=1.21D-02 DE=-1.25D-02 OVMax= 1.13D-02

 Cycle   9  Pass 1  IDiag  1:
 RMSU=  7.21D-05    CP:  9.60D-01  5.97D-01  5.79D-01  1.35D-01  4.45D-01
                    CP:  5.78D-01  6.52D-01  8.20D-01
 E= -26621.4580941421     Delta-E=       -0.001341409938 Rises=F Damp=F
 DIIS: error= 1.75D-04 at cycle   9 NSaved=   9.
 NSaved= 9 IEnMin= 9 EnMin= -26621.4580941421     IErMin= 9 ErrMin= 1.75D-04
 ErrMax= 1.75D-04  0.00D+00 EMaxC= 1.00D-01 BMatC= 4.22D-04 BMatP= 1.78D-03
 IDIUse=3 WtCom= 9.98D-01 WtEn= 1.75D-03
 Coeff-Com: -0.196D-02 0.248D-02-0.157D-02 0.215D-02 0.109D-01 0.240D-01
 Coeff-Com:  0.131D+00 0.388D+00 0.445D+00
 Coeff-En:   0.000D+00 0.000D+00 0.000D+00 0.000D+00 0.000D+00 0.000D+00
 Coeff-En:   0.000D+00 0.176D+00 0.824D+00
 Coeff:     -0.196D-02 0.247D-02-0.157D-02 0.215D-02 0.109D-01 0.240D-01
 Coeff:      0.131D+00 0.388D+00 0.445D+00
 Gap=     0.122 Goal=   None    Shift=    0.000
 RMSDP=3.72D-05 MaxDP=2.62D-03 DE=-1.34D-03 OVMax= 4.13D-03

 Error on total polarization charges =  0.02575
 SCF Done:  E(RPBE-PBE) =  -26621.4580941     A.U. after    9 cycles
            NFock=  9  Conv=0.37D-04     -V/T= 2.0155
 KE= 2.621480969474D+04 PE=-8.716872260348D+04 EE= 2.223020262869D+04
 Leave Link  502 at Fri Sep  7 06:06:02 2018, MaxMem=  2013265920 cpu:     28308.1
 (Enter /scr/programs/g09/l801.exe)
 Range of M.O.s used for correlation:     1  1683
 NBasis=  1683 NAE=   236 NBE=   236 NFC=     0 NFV=     0
 NROrb=   1683 NOA=   236 NOB=   236 NVA=  1447 NVB=  1447

 **** Warning!!: The largest alpha MO coefficient is  0.66069383D+02

 Leave Link  801 at Fri Sep  7 06:06:02 2018, MaxMem=  2013265920 cpu:         1.0
 (Enter /scr/programs/g09/l1002.exe)
 Minotr:  Closed shell wavefunction.
 NEqPCM:  Using equilibrium solvation (IEInf=0, Eps=   8.9300, EpsInf=   2.0283)
          Direct CPHF calculation.
          Differentiating once with respect to magnetic field using GIAOs.
          Electric field/nuclear overlap derivatives assumed to be zero.
          Requested convergence is 1.0D-08 RMS, and 1.0D-07 maximum.
          Secondary convergence is 1.0D-12 RMS, and 1.0D-12 maximum.
          NewPWx=T KeepS1=F KeepF1=F KeepIn=T MapXYZ=F SortEE=F KeepMc=T.
          MDV=    2013263593 using IRadAn=       2.
 Defaulting to unpruned grid for atomic number  78.
 Generate precomputed XC quadrature information.
          Solving linear equations simultaneously, MaxMat=      72.
 FoFJK:  IHMeth= 1 ICntrl=    6127 DoSepK=F KAlg= 0 I1Cent=   0 FoldK=F
 IRaf=         1 NMat=   1 IRICut=       1 DoRegI=T DoRafI=F ISym2E= 0.
 Defaulting to unpruned grid for atomic number  78.
 Defaulting to unpruned grid for atomic number  78.
 Defaulting to unpruned grid for atomic number  78.
 Defaulting to unpruned grid for atomic number  78.
 Defaulting to unpruned grid for atomic number  78.
 Defaulting to unpruned grid for atomic number  78.
 Defaulting to unpruned grid for atomic number  78.
 Defaulting to unpruned grid for atomic number  78.
          There are     3 degrees of freedom in the 1st order CPHF.  IDoFFX=0 NUNeed=     3.
      3 vectors produced by pass  0 Test12= 1.14D-11 3.33D-08 XBig12= 8.58D+02 3.03D+00.
 AX will form     3 AO Fock derivatives at one time.
 InvSVY:  IOpt=1 It=  1 EMax= 0.00D+00
 Solved reduced A of dimension     3 with     3 vectors.
 Calculating GIAO nuclear magnetic shielding tensors.
 SCF GIAO Magnetic shielding tensor (ppm):
      1  Pt   Isotropic =  3526.0419   Anisotropy =   481.5003
   XX=  3777.0762   YX=   -20.8679   ZX=   112.6196
   XY=    31.5647   YY=  3662.4393   ZY=  -423.4638
   XZ=    73.0600   YZ=  -247.3812   ZZ=  3138.6101
   Eigenvalues:  2965.8692  3765.2144  3847.0421
      2  H    Isotropic =    32.6393   Anisotropy =    31.8598
   XX=    25.6933   YX=     3.3251   ZX=    -4.3453
   XY=     4.0511   YY=    48.6172   ZY=   -11.3396
   XZ=     0.4239   YZ=   -12.1497   ZZ=    23.6074
   Eigenvalues:    18.9223    25.1164    53.8792
      3  Sn   Isotropic =  2154.5881   Anisotropy =   800.4614
   XX=  2021.5309   YX=   140.9389   ZX=   -61.6463
   XY=   144.1288   YY=  2493.7831   ZY=  -325.4034
   XZ=   -51.2365   YZ=  -344.7849   ZZ=  1948.4502
   Eigenvalues:  1788.5946  1986.9406  2688.2290
      4  P    Isotropic =   241.3253   Anisotropy =   109.8714
   XX=   313.9846   YX=     3.5114   ZX=     8.2009
   XY=   -17.9258   YY=   218.6319   ZY=    16.0668
   XZ=    -5.7446   YZ=   -46.7040   ZZ=   191.3594
   Eigenvalues:   184.4608   224.9421   314.5729
      5  P    Isotropic =   266.6964   Anisotropy =   101.1419
   XX=   323.1895   YX=   -32.4199   ZX=    26.5613
   XY=   -19.8125   YY=   254.2489   ZY=    13.8848
   XZ=     2.9080   YZ=   -23.5870   ZZ=   222.6507
   Eigenvalues:   220.4917   245.4731   334.1243
      6  Cl   Isotropic =   767.4347   Anisotropy =   306.1386
   XX=   815.6073   YX=    26.5231   ZX=  -129.8642
   XY=    29.9810   YY=   634.3119   ZY=   -24.8507
   XZ=  -132.2863   YZ=   -36.7020   ZZ=   852.3850
   Eigenvalues:   629.1227   701.6544   971.5271
      7  Cl   Isotropic =   763.6789   Anisotropy =   331.3956
   XX=   747.1924   YX=    77.0559   ZX=    49.1460
   XY=    78.7354   YY=   865.1327   ZY=   157.0139
   XZ=    35.7945   YZ=   149.8781   ZZ=   678.7114
   Eigenvalues:   592.3736   714.0537   984.6093
      8  Cl   Isotropic =   752.7288   Anisotropy =   315.6042
   XX=   793.3188   YX=  -127.1013   ZX=    96.6623
   XY=  -144.8414   YY=   725.3339   ZY=   -65.6752
   XZ=    88.1188   YZ=   -85.3425   ZZ=   739.5335
   Eigenvalues:   619.0691   675.9856   963.1316
      9  C    Isotropic =    48.8116   Anisotropy =   172.5531
   XX=    18.3748   YX=    26.3296   ZX=    17.6096
   XY=    31.4160   YY=   137.1877   ZY=   -70.0933
   XZ=    10.3615   YZ=   -55.3248   ZZ=    -9.1277
   Eigenvalues:   -41.6250    24.2128   163.8470
     10  C    Isotropic =    47.8172   Anisotropy =   192.1717
   XX=     7.6344   YX=    10.9555   ZX=   -46.2727
   XY=    12.6932   YY=   159.0534   ZY=   -49.7403
   XZ=   -41.6296   YZ=   -53.8463   ZZ=   -23.2362
   Eigenvalues:   -60.5396    28.0595   175.9317
     11  C    Isotropic =    35.1412   Anisotropy =   173.1442
   XX=   -64.8552   YX=    28.6206   ZX=   -15.9940
   XY=    38.5666   YY=   135.4788   ZY=   -26.8101
   XZ=   -26.3464   YZ=   -33.5265   ZZ=    34.7999
   Eigenvalues:   -72.8467    27.6995   150.5706
     12  C    Isotropic =    49.7013   Anisotropy =   188.0004
   XX=   -53.4550   YX=    34.1487   ZX=   -14.4959
   XY=    32.5693   YY=   158.4164   ZY=   -35.3194
   XZ=   -10.4119   YZ=   -39.2686   ZZ=    44.1425
   Eigenvalues:   -59.0408    33.1098   175.0349
     13  H    Isotropic =    23.3022   Anisotropy =    12.3050
   XX=    28.1590   YX=    -4.0472   ZX=    -4.7431
   XY=    -2.7439   YY=    22.4330   ZY=     2.3948
   XZ=    -4.0531   YZ=     0.6928   ZZ=    19.3146
   Eigenvalues:    17.4954    20.9057    31.5055
     14  C    Isotropic =    46.9347   Anisotropy =   182.6583
   XX=    17.4236   YX=    12.0416   ZX=   -41.9966
   XY=    15.7558   YY=   151.2094   ZY=   -45.5924
   XZ=   -48.5073   YZ=   -55.0581   ZZ=   -27.8290
   Eigenvalues:   -62.1080    34.2052   168.7069
     15  H    Isotropic =    23.2332   Anisotropy =    15.0886
   XX=    19.5474   YX=    -3.5667   ZX=    -3.9490
   XY=    -3.0214   YY=    21.0034   ZY=     4.5940
   XZ=    -4.8097   YZ=     4.5503   ZZ=    29.1487
   Eigenvalues:    16.8546    19.5526    33.2922
     16  C    Isotropic =    45.2110   Anisotropy =   199.7210
   XX=     5.9123   YX=    39.7268   ZX=    29.5507
   XY=    33.6068   YY=   152.0686   ZY=   -62.6360
   XZ=    28.2979   YZ=   -70.0307   ZZ=   -22.3478
   Eigenvalues:   -66.6239    23.8986   178.3584
     17  H    Isotropic =    23.1629   Anisotropy =     5.9119
   XX=    23.8494   YX=    -1.5307   ZX=    -1.6242
   XY=    -1.0487   YY=    20.6868   ZY=     2.6967
   XZ=    -1.2995   YZ=     2.0880   ZZ=    24.9526
   Eigenvalues:    19.5262    22.8585    27.1042
     18  H    Isotropic =    23.3366   Anisotropy =     8.3484
   XX=    24.8743   YX=    -2.4782   ZX=    -2.4915
   XY=    -2.0936   YY=    20.8198   ZY=     2.4760
   XZ=    -3.3116   YZ=     2.4618   ZZ=    24.3156
   Eigenvalues:    19.3977    21.7098    28.9022
     19  H    Isotropic =    23.0849   Anisotropy =     4.0352
   XX=    25.5411   YX=    -1.1983   ZX=     0.7117
   XY=    -0.9076   YY=    20.0564   ZY=     1.4041
   XZ=     0.3483   YZ=     1.4685   ZZ=    23.6573
   Eigenvalues:    19.3334    24.1463    25.7751
     20  C    Isotropic =    38.2633   Anisotropy =   172.7892
   XX=    73.9132   YX=   -89.3459   ZX=    17.9664
   XY=   -75.4168   YY=    32.4815   ZY=   -41.9400
   XZ=    29.3994   YZ=   -49.2973   ZZ=     8.3953
   Eigenvalues:   -43.3082     4.6420   153.4562
     21  C    Isotropic =    42.2694   Anisotropy =   172.7235
   XX=    58.0967   YX=   -92.0125   ZX=    64.7388
   XY=   -82.2563   YY=    48.9136   ZY=     2.8006
   XZ=    66.2388   YZ=     2.0516   ZZ=    19.7979
   Eigenvalues:   -63.7035    33.0933   157.4184
     22  C    Isotropic =    49.3777   Anisotropy =   176.5908
   XX=    99.7365   YX=   -66.5708   ZX=    40.6546
   XY=   -53.5250   YY=    76.8420   ZY=   -31.1003
   XZ=    50.4111   YZ=   -43.3426   ZZ=   -28.4455
   Eigenvalues:   -46.1333    27.1614   167.1048
     23  C    Isotropic =    47.3444   Anisotropy =   183.5369
   XX=   102.6587   YX=   -54.5514   ZX=    55.3856
   XY=   -58.1301   YY=    77.8501   ZY=   -39.8344
   XZ=    50.1871   YZ=   -43.6725   ZZ=   -38.4754
   Eigenvalues:   -60.2358    32.5668   169.7024
     24  H    Isotropic =    23.8758   Anisotropy =    10.6788
   XX=    21.4119   YX=     0.3820   ZX=     2.9789
   XY=     0.1370   YY=    23.5854   ZY=     5.0102
   XZ=     2.9898   YZ=     4.9142   ZZ=    26.6300
   Eigenvalues:    18.7493    21.8831    30.9950
     25  C    Isotropic =    58.6393   Anisotropy =   195.8558
   XX=    81.7132   YX=   -99.2485   ZX=    62.7672
   XY=   -96.2573   YY=    71.9102   ZY=    -5.5362
   XZ=    59.7122   YZ=    -5.5698   ZZ=    22.2946
   Eigenvalues:   -46.2060    32.9141   189.2099
     26  H    Isotropic =    24.2758   Anisotropy =     9.2234
   XX=    26.6789   YX=     2.8141   ZX=     0.4503
   XY=     2.9045   YY=    28.0765   ZY=     2.8144
   XZ=     0.7293   YZ=    -0.8655   ZZ=    18.0719
   Eigenvalues:    17.9655    24.4371    30.4247
     27  C    Isotropic =    56.1515   Anisotropy =   189.9027
   XX=    98.9931   YX=   -96.7719   ZX=    18.5511
   XY=   -90.8128   YY=    45.7767   ZY=   -48.6822
   XZ=    10.7107   YZ=   -59.9822   ZZ=    23.6847
   Eigenvalues:   -45.1048    30.8059   182.7533
     28  H    Isotropic =    23.8922   Anisotropy =     6.2413
   XX=    24.3094   YX=     3.3354   ZX=     1.6317
   XY=     3.0417   YY=    23.9333   ZY=     1.3011
   XZ=     1.0777   YZ=     1.2067   ZZ=    23.4340
   Eigenvalues:    20.9271    22.6965    28.0531
     29  H    Isotropic =    24.8213   Anisotropy =     4.9970
   XX=    25.2545   YX=     1.4275   ZX=     1.1566
   XY=     0.9660   YY=    25.3113   ZY=     2.9457
   XZ=     1.4994   YZ=     1.8081   ZZ=    23.8981
   Eigenvalues:    22.0775    24.2338    28.1526
     30  H    Isotropic =    24.4304   Anisotropy =     1.9677
   XX=    24.9759   YX=     1.8882   ZX=    -0.2598
   XY=     0.8478   YY=    22.9140   ZY=     0.3593
   XZ=    -0.2528   YZ=    -0.0720   ZZ=    25.4014
   Eigenvalues:    22.2134    25.3357    25.7423
     31  C    Isotropic =   136.7689   Anisotropy =    19.0098
   XX=   123.7042   YX=     1.0478   ZX=     9.5444
   XY=     5.2926   YY=   148.4523   ZY=    -0.9588
   XZ=     9.7968   YZ=     2.8614   ZZ=   138.1502
   Eigenvalues:   118.6609   142.2037   149.4421
     32  H    Isotropic =    27.6323   Anisotropy =     6.9056
   XX=    30.1435   YX=    -3.0952   ZX=     1.2728
   XY=    -0.7226   YY=    27.5001   ZY=    -2.4406
   XZ=     3.7378   YZ=     0.1044   ZZ=    25.2532
   Eigenvalues:    24.1551    26.5056    32.2360
     33  H    Isotropic =    28.0871   Anisotropy =     6.2228
   XX=    24.6934   YX=     0.1563   ZX=     0.0258
   XY=     0.1797   YY=    27.3796   ZY=    -0.6299
   XZ=    -0.9596   YZ=     1.2494   ZZ=    32.1882
   Eigenvalues:    24.6516    27.3741    32.2356
     34  C    Isotropic =    37.8685   Anisotropy =   179.1673
   XX=    37.9593   YX=   -47.1973   ZX=    44.5231
   XY=   -45.5514   YY=   -19.7964   ZY=   -71.0199
   XZ=    39.9521   YZ=   -68.9596   ZZ=    95.4426
   Eigenvalues:   -59.9705    16.2626   157.3133
     35  C    Isotropic =    42.0442   Anisotropy =   164.5557
   XX=    25.6811   YX=    17.3373   ZX=    69.8746
   XY=    12.5415   YY=    21.8448   ZY=   -72.9479
   XZ=    82.6035   YZ=   -62.8356   ZZ=    78.6066
   Eigenvalues:   -64.0422    38.4267   151.7480
     36  C    Isotropic =    48.0390   Anisotropy =   168.6511
   XX=   -14.6391   YX=   -42.8370   ZX=    78.2333
   XY=   -42.7384   YY=    45.9464   ZY=   -30.7322
   XZ=    67.3066   YZ=   -18.8700   ZZ=   112.8098
   Eigenvalues:   -56.3898    40.0338   160.4731
     37  C    Isotropic =    46.5364   Anisotropy =   172.7656
   XX=   -20.7405   YX=   -46.9558   ZX=    67.2623
   XY=   -45.5368   YY=    51.0309   ZY=   -35.0278
   XZ=    74.1181   YZ=   -28.6284   ZZ=   109.3188
   Eigenvalues:   -60.4843    38.3800   161.7134
     38  H    Isotropic =    24.1357   Anisotropy =     8.3023
   XX=    23.9881   YX=     2.4439   ZX=    -0.8296
   XY=     3.7624   YY=    25.7957   ZY=    -3.2584
   XZ=     0.4145   YZ=    -4.3503   ZZ=    22.6232
   Eigenvalues:    19.4441    23.2923    29.6705
     39  C    Isotropic =    51.5384   Anisotropy =   178.8770
   XX=    31.1820   YX=    11.3328   ZX=    76.8712
   XY=    12.0181   YY=    26.0980   ZY=   -73.5081
   XZ=    77.4668   YZ=   -72.4597   ZZ=    97.3352
   Eigenvalues:   -56.3763    40.2019   170.7898
     40  H    Isotropic =    24.9571   Anisotropy =    11.0039
   XX=    21.6641   YX=    -2.0453   ZX=    -2.4742
   XY=    -2.2153   YY=    31.8540   ZY=    -2.1550
   XZ=    -1.2739   YZ=     0.6897   ZZ=    21.3530
   Eigenvalues:    19.3079    23.2703    32.2930
     41  C    Isotropic =    53.3312   Anisotropy =   180.1622
   XX=    50.2526   YX=   -52.3797   ZX=    36.2553
   XY=   -49.2296   YY=   -12.7311   ZY=   -64.2910
   XZ=    38.7180   YZ=   -66.4791   ZZ=   122.4722
   Eigenvalues:   -51.6582    38.2125   173.4393
     42  H    Isotropic =    24.0218   Anisotropy =     5.6249
   XX=    23.0323   YX=    -1.2086   ZX=    -1.2045
   XY=     0.0755   YY=    27.6402   ZY=     0.9680
   XZ=     0.4961   YZ=     0.2205   ZZ=    21.3928
   Eigenvalues:    21.2838    23.0098    27.7717
     43  H    Isotropic =    24.5585   Anisotropy =     6.3866
   XX=    24.3653   YX=     1.6434   ZX=    -0.8857
   XY=     2.0611   YY=    28.0308   ZY=     0.1392
   XZ=    -0.7075   YZ=    -0.1333   ZZ=    21.2793
   Eigenvalues:    21.0538    23.8054    28.8162
     44  H    Isotropic =    24.1874   Anisotropy =     3.8703
   XX=    25.3020   YX=    -0.9429   ZX=    -2.4279
   XY=    -0.1747   YY=    25.1602   ZY=     0.5451
   XZ=    -2.1745   YZ=     0.1250   ZZ=    22.0999
   Eigenvalues:    20.8973    24.8973    26.7676
     45  C    Isotropic =    30.2715   Anisotropy =   180.9413
   XX=    65.8947   YX=   -27.0544   ZX=    80.9252
   XY=   -19.3450   YY=   -30.7741   ZY=     4.9764
   XZ=    94.4514   YZ=   -14.8196   ZZ=    55.6939
   Eigenvalues:   -42.6666   -17.4180   150.8991
     46  C    Isotropic =    45.7451   Anisotropy =   182.4581
   XX=    50.8230   YX=    11.3999   ZX=   108.2053
   XY=     6.3621   YY=    22.8032   ZY=   -20.8509
   XZ=   111.7586   YZ=     3.6447   ZZ=    63.6090
   Eigenvalues:   -54.9184    24.7698   167.3838
     47  C    Isotropic =    54.5344   Anisotropy =   179.5753
   XX=    96.8753   YX=    17.6551   ZX=    72.9882
   XY=    18.7994   YY=   -35.8665   ZY=   -29.1657
   XZ=    75.6073   YZ=   -21.9373   ZZ=   102.5945
   Eigenvalues:   -48.8395    38.1915   174.2512
     48  C    Isotropic =    63.3729   Anisotropy =   197.4407
   XX=   105.3466   YX=     8.7618   ZX=    84.2591
   XY=     7.1134   YY=   -27.6510   ZY=   -38.3397
   XZ=    83.5213   YZ=   -36.6963   ZZ=   112.4230
   Eigenvalues:   -44.1590    39.2776   195.0000
     49  H    Isotropic =    23.1471   Anisotropy =    13.8799
   XX=    21.7426   YX=     3.9317   ZX=    -0.5013
   XY=     2.6051   YY=    31.0069   ZY=    -2.3270
   XZ=     1.7648   YZ=    -3.0122   ZZ=    16.6917
   Eigenvalues:    15.9317    21.1091    32.4004
     50  C    Isotropic =    67.9694   Anisotropy =   196.6955
   XX=    69.4003   YX=     4.1131   ZX=   117.9212
   XY=     2.3900   YY=    37.8660   ZY=   -21.7478
   XZ=   110.8372   YZ=   -15.9938   ZZ=    96.6419
   Eigenvalues:   -35.2533    40.0619   199.0997
     51  H    Isotropic =    23.3496   Anisotropy =    12.3752
   XX=    26.0241   YX=     4.6379   ZX=    -4.1946
   XY=     3.6685   YY=    21.5075   ZY=    -2.2638
   XZ=    -5.0756   YZ=    -2.9299   ZZ=    22.5171
   Eigenvalues:    19.0038    19.4452    31.5997
     52  C    Isotropic =    68.5846   Anisotropy =   185.4980
   XX=    87.9298   YX=   -40.5546   ZX=    95.9643
   XY=   -30.8614   YY=     4.1126   ZY=     9.4962
   XZ=    78.8049   YZ=   -10.9738   ZZ=   113.7113
   Eigenvalues:   -20.1829    33.6867   192.2499
     53  H    Isotropic =    24.9777   Anisotropy =     5.2538
   XX=    26.3973   YX=     2.5690   ZX=    -1.2879
   XY=     1.1945   YY=    25.0259   ZY=    -3.0988
   XZ=    -0.2418   YZ=    -1.2556   ZZ=    23.5098
   Eigenvalues:    21.9029    24.5499    28.4802
     54  H    Isotropic =    25.9781   Anisotropy =     3.7503
   XX=    25.1128   YX=     1.9541   ZX=    -0.0690
   XY=     1.3557   YY=    26.5939   ZY=    -1.7552
   XZ=     1.3595   YZ=    -1.8974   ZZ=    26.2277
   Eigenvalues:    23.1797    26.2764    28.4783
     55  H    Isotropic =    26.4697   Anisotropy =     3.2978
   XX=    26.7253   YX=    -0.3164   ZX=     0.3768
   XY=    -1.5376   YY=    25.1950   ZY=    -0.9164
   XZ=     2.1756   YZ=     0.1005   ZZ=    27.4888
   Eigenvalues:    24.7429    25.9979    28.6682
     56  C    Isotropic =    32.5195   Anisotropy =   173.8881
   XX=    15.4357   YX=    42.8439   ZX=   -21.9833
   XY=    45.7214   YY=   127.8399   ZY=   -25.7403
   XZ=   -21.1393   YZ=   -26.7665   ZZ=   -45.7171
   Eigenvalues:   -53.4693     2.5830   148.4449
     57  C    Isotropic =    48.2576   Anisotropy =   183.1231
   XX=     7.6484   YX=    63.0514   ZX=    31.2445
   XY=    58.4468   YY=   143.3410   ZY=   -37.6456
   XZ=    32.3786   YZ=   -40.3326   ZZ=    -6.2167
   Eigenvalues:   -56.0645    30.4975   170.3397
     58  C    Isotropic =    40.3517   Anisotropy =   166.7535
   XX=   -40.7320   YX=    64.7420   ZX=   -16.7024
   XY=    59.4820   YY=   129.7723   ZY=    -4.0782
   XZ=   -21.9175   YZ=   -11.5662   ZZ=    32.0149
   Eigenvalues:   -63.6384    33.1729   151.5207
     59  C    Isotropic =    48.5241   Anisotropy =   187.1135
   XX=   -35.7535   YX=    68.3266   ZX=   -29.1976
   XY=    58.7831   YY=   149.3072   ZY=   -19.1976
   XZ=   -27.7754   YZ=   -13.9429   ZZ=    32.0187
   Eigenvalues:   -60.9742    33.2802   173.2664
     60  H    Isotropic =    23.8137   Anisotropy =    11.8642
   XX=    26.3962   YX=    -1.3922   ZX=     5.7975
   XY=     0.3004   YY=    19.6296   ZY=     0.0192
   XZ=     5.6121   YZ=    -1.9407   ZZ=    25.4154
   Eigenvalues:    19.3933    20.3246    31.7232
     61  C    Isotropic =    45.1824   Anisotropy =   174.0713
   XX=    12.5429   YX=    59.7800   ZX=    34.9393
   XY=    59.3590   YY=   132.5287   ZY=   -43.3914
   XZ=    35.8557   YZ=   -41.0052   ZZ=    -9.5244
   Eigenvalues:   -61.0669    35.3842   161.2299
     62  H    Isotropic =    23.2798   Anisotropy =    14.4948
   XX=    19.2559   YX=     0.9279   ZX=     2.5064
   XY=     1.7264   YY=    19.2978   ZY=     3.6946
   XZ=     2.3946   YZ=     3.9473   ZZ=    31.2855
   Eigenvalues:    17.8133    19.0831    32.9429
     63  C    Isotropic =    45.6698   Anisotropy =   195.7893
   XX=    35.2680   YX=    43.7564   ZX=   -37.5535
   XY=    41.1602   YY=   154.6839   ZY=   -37.8019
   XZ=   -32.6351   YZ=   -28.7321   ZZ=   -52.9427
   Eigenvalues:   -66.7266    27.5399   176.1959
     64  H    Isotropic =    23.2385   Anisotropy =     6.4349
   XX=    23.3103   YX=    -1.0909   ZX=     1.3494
   XY=    -1.3292   YY=    19.2936   ZY=     1.2118
   XZ=     1.0233   YZ=     1.0884   ZZ=    27.1117
   Eigenvalues:    18.7111    23.4760    27.5285
     65  H    Isotropic =    23.2816   Anisotropy =     8.6428
   XX=    23.5355   YX=    -1.1055   ZX=     3.5296
   XY=    -1.0112   YY=    19.4929   ZY=     0.9863
   XZ=     3.4258   YZ=     1.4312   ZZ=    26.8163
   Eigenvalues:    18.6025    22.1987    29.0434
     66  H    Isotropic =    22.9742   Anisotropy =     5.0322
   XX=    25.5597   YX=    -2.3065   ZX=     0.6322
   XY=    -2.3223   YY=    19.2210   ZY=     1.0665
   XZ=     0.5531   YZ=     1.4929   ZZ=    24.1420
   Eigenvalues:    18.1390    24.4546    26.3291
     67  C    Isotropic =   145.2139   Anisotropy =    24.8821
   XX=   132.6366   YX=    -1.3639   ZX=    18.3218
   XY=   -11.9634   YY=   150.2353   ZY=     6.9855
   XZ=     7.0673   YZ=    10.6849   ZZ=   152.7699
   Eigenvalues:   122.8667   150.9731   161.8020
     68  H    Isotropic =    26.6909   Anisotropy =     8.4492
   XX=    32.1841   YX=     0.0662   ZX=     0.3178
   XY=    -1.6288   YY=    24.9143   ZY=     1.8468
   XZ=    -1.5853   YZ=    -0.0740   ZZ=    22.9744
   Eigenvalues:    22.6201    25.1290    32.3237
     69  H    Isotropic =    26.9040   Anisotropy =     5.8468
   XX=    25.3095   YX=    -0.1711   ZX=    -0.6620
   XY=     0.1805   YY=    28.8916   ZY=    -0.5193
   XZ=    -1.9662   YZ=    -4.9908   ZZ=    26.5110
   Eigenvalues:    23.8390    26.0711    30.8019
     70  C    Isotropic =    42.0454   Anisotropy =   182.6011
   XX=   127.9271   YX=   -31.6365   ZX=   -64.7097
   XY=   -34.6617   YY=    11.1947   ZY=   -13.6155
   XZ=   -82.3639   YZ=    -9.9016   ZZ=   -12.9856
   Eigenvalues:   -53.5826    15.9394   163.7795
     71  C    Isotropic =    45.2472   Anisotropy =   163.1026
   XX=   129.2723   YX=    -8.0899   ZX=   -57.0516
   XY=    -9.6617   YY=     9.8321   ZY=    51.9905
   XZ=   -52.9150   YZ=    48.9878   ZZ=    -3.3628
   Eigenvalues:   -55.1888    36.9481   153.9823
     72  C    Isotropic =    50.5411   Anisotropy =   173.1653
   XX=   142.9441   YX=   -23.4585   ZX=   -47.3758
   XY=   -27.1889   YY=   -48.4781   ZY=     8.9499
   XZ=   -43.5743   YZ=    10.4134   ZZ=    57.1573
   Eigenvalues:   -51.9137    37.5523   165.9847
     73  C    Isotropic =    48.4386   Anisotropy =   180.3627
   XX=   145.2903   YX=   -26.1250   ZX=   -47.3227
   XY=   -30.1787   YY=   -51.7552   ZY=     6.1135
   XZ=   -48.2257   YZ=    -1.0414   ZZ=    51.7807
   Eigenvalues:   -55.8737    32.5092   168.6804
     74  H    Isotropic =    23.7368   Anisotropy =     8.3744
   XX=    22.7478   YX=     0.0213   ZX=    -1.4558
   XY=    -1.1132   YY=    26.2705   ZY=     4.7438
   XZ=    -0.5684   YZ=     4.2405   ZZ=    22.1921
   Eigenvalues:    19.2083    22.6824    29.3197
     75  C    Isotropic =    43.6373   Anisotropy =   167.9789
   XX=   129.1162   YX=     0.4762   ZX=   -57.3641
   XY=    -3.9567   YY=     6.9400   ZY=    49.9447
   XZ=   -64.7686   YZ=    51.2866   ZZ=    -5.1444
   Eigenvalues:   -61.3958    36.6844   155.6232
     76  H    Isotropic =    23.5994   Anisotropy =     8.9730
   XX=    22.7580   YX=     2.3259   ZX=    -0.6099
   XY=     1.3597   YY=    18.8045   ZY=     0.7690
   XZ=    -0.6724   YZ=     3.0032   ZZ=    29.2357
   Eigenvalues:    17.7345    23.4823    29.5814
     77  C    Isotropic =    49.5783   Anisotropy =   182.8148
   XX=   142.7913   YX=   -26.6277   ZX=   -67.5049
   XY=   -32.2392   YY=    20.3403   ZY=   -23.0835
   XZ=   -71.4426   YZ=   -27.7029   ZZ=   -14.3968
   Eigenvalues:   -56.2544    33.5344   171.4548
     78  H    Isotropic =    23.5096   Anisotropy =     5.3708
   XX=    20.7960   YX=    -0.4934   ZX=     0.8388
   XY=    -1.9586   YY=    23.5984   ZY=     2.2560
   XZ=     1.1557   YZ=     1.3543   ZZ=    26.1345
   Eigenvalues:    19.9107    23.5281    27.0902
     79  H    Isotropic =    23.3132   Anisotropy =     7.4594
   XX=    20.0355   YX=     2.3284   ZX=     0.5862
   XY=     1.9339   YY=    23.8429   ZY=     2.5717
   XZ=    -0.6599   YZ=     3.3330   ZZ=    26.0613
   Eigenvalues:    18.8268    22.8267    28.2861
     80  H    Isotropic =    23.1957   Anisotropy =     3.7620
   XX=    19.0710   YX=     0.4448   ZX=     0.3571
   XY=    -0.4792   YY=    25.6721   ZY=     0.2174
   XZ=    -0.8232   YZ=     0.1092   ZZ=    24.8440
   Eigenvalues:    19.0616    24.8218    25.7037
 End of Minotr F.D. properties file   721 does not exist.
 End of Minotr F.D. properties file   722 does not exist.
 End of Minotr F.D. properties file   788 does not exist.
 Leave Link 1002 at Fri Sep  7 09:12:46 2018, MaxMem=  2013265920 cpu:     89323.0
 (Enter /scr/programs/g09/l601.exe)
 Copying SCF densities to generalized density rwf, IOpCl= 0 IROHF=0.

 **********************************************************************

            Population analysis using the SCF density.

 **********************************************************************

 Orbital symmetries:
       Occupied  (A) (A) (A) (A) (A) (A) (A) (A) (A) (A) (A) (A)
                 (A) (A) (A) (A) (A) (A) (A) (A) (A) (A) (A) (A)
                 (A) (A) (A) (A) (A) (A) (A) (A) (A) (A) (A) (A)
                 (A) (A) (A) (A) (A) (A) (A) (A) (A) (A) (A) (A)
                 (A) (A) (A) (A) (A) (A) (A) (A) (A) (A) (A) (A)
                 (A) (A) (A) (A) (A) (A) (A) (A) (A) (A) (A) (A)
                 (A) (A) (A) (A) (A) (A) (A) (A) (A) (A) (A) (A)
                 (A) (A) (A) (A) (A) (A) (A) (A) (A) (A) (A) (A)
                 (A) (A) (A) (A) (A) (A) (A) (A) (A) (A) (A) (A)
                 (A) (A) (A) (A) (A) (A) (A) (A) (A) (A) (A) (A)
                 (A) (A) (A) (A) (A) (A) (A) (A) (A) (A) (A) (A)
                 (A) (A) (A) (A) (A) (A) (A) (A) (A) (A) (A) (A)
                 (A) (A) (A) (A) (A) (A) (A) (A) (A) (A) (A) (A)
                 (A) (A) (A) (A) (A) (A) (A) (A) (A) (A) (A) (A)
                 (A) (A) (A) (A) (A) (A) (A) (A) (A) (A) (A) (A)
                 (A) (A) (A) (A) (A) (A) (A) (A) (A) (A) (A) (A)
                 (A) (A) (A) (A) (A) (A) (A) (A) (A) (A) (A) (A)
                 (A) (A) (A) (A) (A) (A) (A) (A) (A) (A) (A) (A)
                 (A) (A) (A) (A) (A) (A) (A) (A) (A) (A) (A) (A)
                 (A) (A) (A) (A) (A) (A) (A) (A)
       Virtual   (A) (A) (A) (A) (A) (A) (A) (A) (A) (A) (A) (A)
                 (A) (A) (A) (A) (A) (A) (A) (A) (A) (A) (A) (A)
                 (A) (A) (A) (A) (A) (A) (A) (A) (A) (A) (A) (A)
                 (A) (A) (A) (A) (A) (A) (A) (A) (A) (A) (A) (A)
                 (A) (A) (A) (A) (A) (A) (A) (A) (A) (A) (A) (A)
                 (A) (A) (A) (A) (A) (A) (A) (A) (A) (A) (A) (A)
                 (A) (A) (A) (A) (A) (A) (A) (A) (A) (A) (A) (A)
                 (A) (A) (A) (A) (A) (A) (A) (A) (A) (A) (A) (A)
                 (A) (A) (A) (A) (A) (A) (A) (A) (A) (A) (A) (A)
                 (A) (A) (A) (A) (A) (A) (A) (A) (A) (A) (A) (A)
                 (A) (A) (A) (A) (A) (A) (A) (A) (A) (A) (A) (A)
                 (A) (A) (A) (A) (A) (A) (A) (A) (A) (A) (A) (A)
                 (A) (A) (A) (A) (A) (A) (A) (A) (A) (A) (A) (A)
                 (A) (A) (A) (A) (A) (A) (A) (A) (A) (A) (A) (A)
                 (A) (A) (A) (A) (A) (A) (A) (A) (A) (A) (A) (A)
                 (A) (A) (A) (A) (A) (A) (A) (A) (A) (A) (A) (A)
                 (A) (A) (A) (A) (A) (A) (A) (A) (A) (A) (A) (A)
                 (A) (A) (A) (A) (A) (A) (A) (A) (A) (A) (A) (A)
                 (A) (A) (A) (A) (A) (A) (A) (A) (A) (A) (A) (A)
                 (A) (A) (A) (A) (A) (A) (A) (A) (A) (A) (A) (A)
                 (A) (A) (A) (A) (A) (A) (A) (A) (A) (A) (A) (A)
                 (A) (A) (A) (A) (A) (A) (A) (A) (A) (A) (A) (A)
                 (A) (A) (A) (A) (A) (A) (A) (A) (A) (A) (A) (A)
                 (A) (A) (A) (A) (A) (A) (A) (A) (A) (A) (A) (A)
                 (A) (A) (A) (A) (A) (A) (A) (A) (A) (A) (A) (A)
                 (A) (A) (A) (A) (A) (A) (A) (A) (A) (A) (A) (A)
                 (A) (A) (A) (A) (A) (A) (A) (A) (A) (A) (A) (A)
                 (A) (A) (A) (A) (A) (A) (A) (A) (A) (A) (A) (A)
                 (A) (A) (A) (A) (A) (A) (A) (A) (A) (A) (A) (A)
                 (A) (A) (A) (A) (A) (A) (A) (A) (A) (A) (A) (A)
                 (A) (A) (A) (A) (A) (A) (A) (A) (A) (A) (A) (A)
                 (A) (A) (A) (A) (A) (A) (A) (A) (A) (A) (A) (A)
                 (A) (A) (A) (A) (A) (A) (A) (A) (A) (A) (A) (A)
[...]
 Alpha virt. eigenvalues --    1.32352   1.32438   1.32946   1.32970   1.33366
 Alpha virt. eigenvalues --    1.33478   1.34059   1.34443   1.34856   1.35081
 Alpha virt. eigenvalues --    1.35402   1.35897   1.36110   1.36401   1.36684
 Alpha virt. eigenvalues --    1.36874   1.37147   1.37429   1.37741   1.38110
 Alpha virt. eigenvalues --    1.38149   1.38842   1.39194   1.39238   1.39570
 Alpha virt. eigenvalues --    1.40202   1.40344   1.40433   1.40831   1.41030
 Alpha virt. eigenvalues --    1.41438   1.41821   1.42166   1.42224   1.42686
 Alpha virt. eigenvalues --    1.42821   1.43080   1.43523   1.44029   1.44079
 Alpha virt. eigenvalues --    1.44341   1.44718   1.45121   1.45540   1.45746
 Alpha virt. eigenvalues --    1.46474   1.46951   1.47099   1.47444   1.48105
 Alpha virt. eigenvalues --    1.48304   1.49002   1.49443   1.49936   1.50198
 Alpha virt. eigenvalues --    1.50617   1.50940   1.51405   1.51615   1.51852
 Alpha virt. eigenvalues --    1.52220   1.52791   1.53259   1.53358   1.53565
 Alpha virt. eigenvalues --    1.54038   1.54515   1.54618   1.55128   1.55544
 Alpha virt. eigenvalues --    1.55888   1.56245   1.56518   1.56984   1.57567
 Alpha virt. eigenvalues --    1.57640   1.58160   1.58547   1.58603   1.59194
 Alpha virt. eigenvalues --    1.59368   1.59828   1.60270   1.60442   1.60701
 Alpha virt. eigenvalues --    1.61007   1.61557   1.61784   1.61884   1.62124
 Alpha virt. eigenvalues --    1.62613   1.62808   1.63068   1.63193   1.63684
 Alpha virt. eigenvalues --    1.63750   1.64277   1.64624   1.64700   1.64870
 Alpha virt. eigenvalues --    1.65300   1.65385   1.65555   1.66058   1.66435
 Alpha virt. eigenvalues --    1.66566   1.66969   1.67090   1.67339   1.67678
 Alpha virt. eigenvalues --    1.67862   1.68242   1.68340   1.68690   1.68846
 Alpha virt. eigenvalues --    1.69037   1.69240   1.69457   1.69680   1.69900
 Alpha virt. eigenvalues --    1.70077   1.70407   1.70724   1.70849   1.71248
 Alpha virt. eigenvalues --    1.71779   1.71841   1.72161   1.72405   1.72469
 Alpha virt. eigenvalues --    1.72754   1.72985   1.73385   1.73789   1.74072
 Alpha virt. eigenvalues --    1.74409   1.74595   1.74754   1.74783   1.75270
 Alpha virt. eigenvalues --    1.75667   1.76096   1.76258   1.76796   1.77176
 Alpha virt. eigenvalues --    1.77561   1.78318   1.78675   1.79169   1.79531
 Alpha virt. eigenvalues --    1.80135   1.80582   1.80781   1.81213   1.81599
 Alpha virt. eigenvalues --    1.82443   1.83263   1.84268   1.84573   1.84759
 Alpha virt. eigenvalues --    1.85620   1.86351   1.86734   1.87107   1.87372
 Alpha virt. eigenvalues --    1.87805   1.88300   1.88504   1.89037   1.89133
 Alpha virt. eigenvalues --    1.89690   1.89935   1.90234   1.90672   1.90853
 Alpha virt. eigenvalues --    1.91024   1.91650   1.91805   1.92433   1.92584
 Alpha virt. eigenvalues --    1.92780   1.93161   1.93583   1.94060   1.94704
 Alpha virt. eigenvalues --    1.94913   1.95117   1.95771   1.95924   1.96562
 Alpha virt. eigenvalues --    1.97156   1.97520   1.98122   1.98390   1.99269
 Alpha virt. eigenvalues --    1.99631   1.99761   2.00032   2.00655   2.01055
 Alpha virt. eigenvalues --    2.01509   2.01661   2.01955   2.02305   2.02948
 Alpha virt. eigenvalues --    2.03177   2.03358   2.03443   2.03715   2.03841
 Alpha virt. eigenvalues --    2.03979   2.04161   2.04604   2.04971   2.05232
 Alpha virt. eigenvalues --    2.05384   2.05876   2.06235   2.06257   2.06526
 Alpha virt. eigenvalues --    2.06928   2.07212   2.07284   2.07742   2.08459
 Alpha virt. eigenvalues --    2.08537   2.08781   2.09144   2.09648   2.09985
 Alpha virt. eigenvalues --    2.10368   2.10797   2.11488   2.11725   2.11894
 Alpha virt. eigenvalues --    2.12447   2.12686   2.12843   2.13206   2.13720
 Alpha virt. eigenvalues --    2.14504   2.14961   2.15218   2.15383   2.15802
 Alpha virt. eigenvalues --    2.15996   2.16475   2.16914   2.17206   2.17472
 Alpha virt. eigenvalues --    2.17728   2.18095   2.18675   2.18791   2.19564
 Alpha virt. eigenvalues --    2.19814   2.20162   2.20623   2.21043   2.21305
 Alpha virt. eigenvalues --    2.21707   2.21793   2.22422   2.22636   2.22822
 Alpha virt. eigenvalues --    2.22982   2.23617   2.24217   2.24724   2.25158
 Alpha virt. eigenvalues --    2.25696   2.26650   2.27049   2.27150   2.27662
 Alpha virt. eigenvalues --    2.28373   2.28856   2.28988   2.29630   2.30097
 Alpha virt. eigenvalues --    2.30114   2.31124   2.31497   2.31579   2.31782
 Alpha virt. eigenvalues --    2.32475   2.32824   2.33348   2.33580   2.33837
 Alpha virt. eigenvalues --    2.34331   2.34538   2.35010   2.35539   2.35760
 Alpha virt. eigenvalues --    2.35969   2.36123   2.37111   2.37475   2.37648
 Alpha virt. eigenvalues --    2.38057   2.38287   2.38427   2.38960   2.38990
 Alpha virt. eigenvalues --    2.39638   2.40026   2.40498   2.40991   2.41249
 Alpha virt. eigenvalues --    2.41574   2.42117   2.42719   2.43531   2.43925
 Alpha virt. eigenvalues --    2.44523   2.44912   2.45762   2.46003   2.46240
 Alpha virt. eigenvalues --    2.46609   2.47210   2.48488   2.48995   2.49486
 Alpha virt. eigenvalues --    2.50037   2.50247   2.50984   2.51477   2.52576
 Alpha virt. eigenvalues --    2.52920   2.53690   2.54032   2.54704   2.55165
 Alpha virt. eigenvalues --    2.55538   2.56088   2.56237   2.56356   2.56988
 Alpha virt. eigenvalues --    2.57183   2.58526   2.59181   2.59299   2.59557
 Alpha virt. eigenvalues --    2.60291   2.60793   2.61434   2.61934   2.62525
 Alpha virt. eigenvalues --    2.63360   2.64117   2.64668   2.65342   2.66220
 Alpha virt. eigenvalues --    2.66792   2.67072   2.67253   2.67848   2.68171
 Alpha virt. eigenvalues --    2.68343   2.68588   2.68859   2.69395   2.69863
 Alpha virt. eigenvalues --    2.70885   2.71055   2.71486   2.71969   2.72505
 Alpha virt. eigenvalues --    2.72762   2.73044   2.73900   2.74184   2.74355
 Alpha virt. eigenvalues --    2.74687   2.74957   2.75726   2.76175   2.76250
 Alpha virt. eigenvalues --    2.76531   2.77209   2.77690   2.78062   2.78639
 Alpha virt. eigenvalues --    2.79316   2.81023   2.81465   2.82648   2.83011
 Alpha virt. eigenvalues --    2.84140   2.84450   2.84670   2.84831   2.85538
 Alpha virt. eigenvalues --    2.86204   2.86763   2.87023   2.88081   2.88511
 Alpha virt. eigenvalues --    2.88803   2.89057   2.89768   2.90318   2.91062
 Alpha virt. eigenvalues --    2.92156   2.92666   2.94626   2.94949   2.95420
 Alpha virt. eigenvalues --    2.96062   2.96114   2.96807   2.97075   2.97319
 Alpha virt. eigenvalues --    2.97592   2.98023   2.98359   2.98611   2.98749
 Alpha virt. eigenvalues --    2.98797   2.99569   2.99875   3.00107   3.00891
 Alpha virt. eigenvalues --    3.02189   3.03334   3.04367   3.05262   3.06161
 Alpha virt. eigenvalues --    3.06788   3.07633   3.08175   3.09778   3.10032
 Alpha virt. eigenvalues --    3.11770   3.12142   3.12631   3.12697   3.13209
 Alpha virt. eigenvalues --    3.13752   3.14083   3.14346   3.14967   3.15606
 Alpha virt. eigenvalues --    3.16259   3.16525   3.18331   3.19416   3.19501
 Alpha virt. eigenvalues --    3.20336   3.20461   3.20815   3.21147   3.21739
 Alpha virt. eigenvalues --    3.22878   3.23596   3.24070   3.25282   3.27157
 Alpha virt. eigenvalues --    3.27931   3.28741   3.29849   3.31103   3.32154
 Alpha virt. eigenvalues --    3.32922   3.33413   3.34011   3.34456   3.35483
 Alpha virt. eigenvalues --    3.35675   3.37391   3.46125   3.46554   3.46678
 Alpha virt. eigenvalues --    3.47024   3.47130   3.47678   3.48539   3.51731
 Alpha virt. eigenvalues --    3.51844   3.52816   3.53105   3.53515   3.54685
 Alpha virt. eigenvalues --    3.57834   3.64047   3.66673   3.71788   3.72019
 Alpha virt. eigenvalues --    3.75808   3.78804   3.93719   3.95443   3.98844
 Alpha virt. eigenvalues --    4.01181   4.03916   4.12161   4.13347   4.13920
 Alpha virt. eigenvalues --    4.16520   4.17910   4.18929   4.22000   4.23216
 Alpha virt. eigenvalues --    4.24317   4.26277   4.26618   4.28262   4.28603
 Alpha virt. eigenvalues --    4.29370   4.29782   4.30763   4.31736   4.33767
 Alpha virt. eigenvalues --    4.34354   4.36904   4.37637   4.39267   4.39947
 Alpha virt. eigenvalues --    4.40416   4.41326   4.42530   4.45143   4.46235
 Alpha virt. eigenvalues --    4.47252   4.47847   4.48245   4.51633   4.55296
 Alpha virt. eigenvalues --    4.55622   4.59386   4.77912   4.78272   4.78602
 Alpha virt. eigenvalues --    4.78716   4.82575   4.82701   5.54657   5.62875
 Alpha virt. eigenvalues --    5.65756   5.86929   6.01065   6.18334   6.62352
 Alpha virt. eigenvalues --    6.62754   6.63248   6.65518   6.65809   6.66862
 Alpha virt. eigenvalues --    6.76583   6.76978   6.78803   6.78999   6.79522
 Alpha virt. eigenvalues --    6.80605   6.82036   6.82735   6.83386   6.87003
 Alpha virt. eigenvalues --    6.87597   6.88249   6.89112   6.90474   6.92217
 Alpha virt. eigenvalues --    6.92929   6.94364   6.95258   6.97432   6.99630
 Alpha virt. eigenvalues --    7.01605   7.03208   7.05209   7.07435   7.09672
 Alpha virt. eigenvalues --    7.10534   7.11332   7.19151   7.23911   7.24255
 Alpha virt. eigenvalues --    7.24959   7.25423   7.26328   7.28883   7.75256
 Alpha virt. eigenvalues --    7.75433   7.77465   7.79063   7.81766   7.83093
 Alpha virt. eigenvalues --    8.48505   8.49368   8.49796   8.50980   8.52145
 Alpha virt. eigenvalues --    8.53106   8.53198   8.61446   8.83564   9.06270
 Alpha virt. eigenvalues --    9.86648   9.86721   9.88698   9.92062   9.92846
 Alpha virt. eigenvalues --    9.93114   9.95503  10.01787  10.03873  10.07761
 Alpha virt. eigenvalues --   10.09365  10.13427  10.15970  10.32015  14.16013
 Alpha virt. eigenvalues --   14.23034  15.69597  16.76474  16.87244  16.89315
 Alpha virt. eigenvalues --   17.03439  17.04016  17.04313  17.04650  17.05216
 Alpha virt. eigenvalues --   17.05594  17.05998  17.06116  17.06313  17.07447
 Alpha virt. eigenvalues --   17.08729  17.09796  17.10728  17.11009  17.12644
 Alpha virt. eigenvalues --   17.13961  17.14526  17.16405  17.17989  17.18408
 Alpha virt. eigenvalues --   17.20254  17.20782  17.22351  17.22765  17.24406
 Alpha virt. eigenvalues --   17.27013  17.29140  17.29428  17.31051  17.32595
 Alpha virt. eigenvalues --   17.33310  17.33514  17.33999  17.34908  17.35896
 Alpha virt. eigenvalues --   17.37420  17.38956  17.39460  21.09362  21.21695
 Alpha virt. eigenvalues --   21.38402  25.51439  25.58119  25.60853  26.21521
 Alpha virt. eigenvalues --   31.69755  31.71889  31.73890  31.78027  31.80199
 Alpha virt. eigenvalues --   42.92641  43.02924  43.07519  43.08311  43.19285
 Alpha virt. eigenvalues --   61.86585  61.92430  63.05636  78.08642  78.17925
 Alpha virt. eigenvalues --   78.19805  82.25824  86.19847  86.30406  86.43537
 Alpha virt. eigenvalues --   89.29440  89.29652  89.30482  89.30929  89.31318
 Alpha virt. eigenvalues --   89.31673  89.32092  89.32874  89.33311  89.33984
 Alpha virt. eigenvalues --   89.34570  89.34983  89.36089  89.37568  89.37844
 Alpha virt. eigenvalues --   89.38899  89.39901  89.41882  89.43811  89.44416
 Alpha virt. eigenvalues --   89.46266  89.47160  89.48686  89.49059  89.50298
 Alpha virt. eigenvalues --   89.53173  89.55236  89.55776  89.57100  89.58921
 Alpha virt. eigenvalues --   89.60655  89.60797  89.61880  89.62758  89.63708
 Alpha virt. eigenvalues --   89.65086  89.65410  89.66027 121.85587 121.90281
 Alpha virt. eigenvalues --  121.92173 239.22900 257.36189 332.19646 332.25782
 Alpha virt. eigenvalues --  428.78836 428.87269 428.97411 431.70393 431.80195
 Alpha virt. eigenvalues --  431.82212 590.22453 590.26060 590.27520 773.03368
 Alpha virt. eigenvalues --  839.624092068.629842529.996915495.42692**********
 Alpha virt. eigenvalues -- ********************
          Condensed to atoms (all electrons):
 Mulliken charges:
               1
     1  Pt   0.734630
     2  H   -0.010525
     3  Sn   0.222775
     4  P    0.686796
     5  P    0.772030
     6  Cl  -0.273419
     7  Cl  -0.243871
     8  Cl  -0.271600
     9  C   -0.574655
    10  C    0.220980
    11  C    0.282066
    12  C    0.023055
    13  H    0.098947
    14  C   -0.159001
    15  H    0.076324
    16  C   -0.561037
    17  H    0.144118
    18  H    0.140633
    19  H    0.156294
    20  C   -0.991456
    21  C    0.397411
    22  C    0.296299
    23  C   -0.059704
    24  H    0.089499
    25  C   -0.125141
    26  H    0.108135
    27  C   -0.554325
    28  H    0.143943
    29  H    0.138434
    30  H    0.149887
    31  C   -0.150090
    32  H    0.105802
    33  H    0.071966
    34  C   -0.350006
    35  C    0.047128
    36  C   -0.081670
    37  C   -0.095043
    38  H    0.094468
    39  C   -0.132141
    40  H    0.107188
    41  C   -0.346268
    42  H    0.143854
    43  H    0.148215
    44  H    0.159797
    45  C   -0.922552
    46  C    0.294752
    47  C    0.420471
    48  C   -0.093094
    49  H    0.093578
    50  C   -0.149269
    51  H    0.108136
    52  C   -0.606695
    53  H    0.143788
    54  H    0.145822
    55  H    0.155155
    56  C   -0.775233
    57  C    0.159335
    58  C    0.500646
    59  C   -0.072143
    60  H    0.120680
    61  C   -0.201798
    62  H    0.091036
    63  C   -0.620195
    64  H    0.149274
    65  H    0.143949
    66  H    0.152619
    67  C    0.007266
    68  H    0.100862
    69  H    0.047802
    70  C   -0.311981
    71  C   -0.026602
    72  C    0.107048
    73  C   -0.211675
    74  H    0.107183
    75  C    0.111500
    76  H    0.070013
    77  C   -0.445827
    78  H    0.139298
    79  H    0.135535
    80  H    0.150594
 Sum of Mulliken charges =   0.00000
 Mulliken charges with hydrogens summed into heavy atoms:
               1
     1  Pt   0.724105
     3  Sn   0.222775
     4  P    0.686796
     5  P    0.772030
     6  Cl  -0.273419
     7  Cl  -0.243871
     8  Cl  -0.271600
     9  C   -0.574655
    10  C    0.319927
    11  C    0.358390
    12  C    0.167172
    14  C   -0.018367
    16  C   -0.404743
    20  C   -0.991456
    21  C    0.486910
    22  C    0.404434
    23  C    0.084239
    25  C    0.013293
    27  C   -0.404438
    31  C    0.027679
    34  C   -0.350006
    35  C    0.141596
    36  C    0.025518
    37  C    0.048811
    39  C    0.016074
    41  C   -0.186471
    45  C   -0.922552
    46  C    0.388330
    47  C    0.528606
    48  C    0.050695
    50  C   -0.003447
    52  C   -0.451540
    56  C   -0.775233
    57  C    0.280015
    58  C    0.591682
    59  C    0.077131
    61  C   -0.057849
    63  C   -0.467576
    67  C    0.155930
    70  C   -0.311981
    71  C    0.080581
    72  C    0.177061
    73  C   -0.072378
    75  C    0.247035
    77  C   -0.295232
 Electronic spatial extent (au):  <R**2>=          29047.2727
 Charge=              0.0000 electrons
 Dipole moment (field-independent basis, Debye):
    X=              1.9377    Y=             12.4557    Z=             -5.4108  Tot=             13.7177
 Quadrupole moment (field-independent basis, Debye-Ang):
   XX=           -296.1691   YY=           -360.4800   ZZ=           -326.0449
   XY=             -4.9426   XZ=              2.3776   YZ=             27.7326
 Traceless Quadrupole moment (field-independent basis, Debye-Ang):
   XX=             31.3956   YY=            -32.9154   ZZ=              1.5198
   XY=             -4.9426   XZ=              2.3776   YZ=             27.7326
 Octapole moment (field-independent basis, Debye-Ang**2):
  XXX=            -21.9485  YYY=            110.1776  ZZZ=             32.7152  XYY=             19.7962
  XXY=             26.8708  XXZ=             30.0364  XZZ=             22.5221  YZZ=             21.7994
  YYZ=            -52.0572  XYZ=            -80.8547
 Hexadecapole moment (field-independent basis, Debye-Ang**3):
 XXXX=         -15259.5089 YYYY=         -13975.7615 ZZZZ=          -8427.8604 XXXY=             -7.6677
 XXXZ=           -184.2209 YYYX=            279.5529 YYYZ=            250.6370 ZZZX=            220.0578
 ZZZY=            354.4608 XXYY=          -4893.2479 XXZZ=          -3964.3921 YYZZ=          -3977.2039
 XXYZ=             11.6403 YYXZ=           -192.3987 ZZXY=             86.6106
 N-N= 1.210225218590D+04 E-N=-8.716724207245D+04  KE= 2.621480969474D+04
 Calculating spin-rotation constants.
 Leave Link  601 at Fri Sep  7 09:30:00 2018, MaxMem=  2013265920 cpu:      1309.0
 (Enter /scr/programs/g09/l9999.exe)
 1\1\GINC-NEQC17\SP\RPBEPBE\Gen\C38H35Cl3P2Pt1Sn1\DIEGO\07-Sep-2018\0\\
 #PBEPBE/gen scf=(maxcycle=1000,conver=4) NMR=GIAO Scrf=(solvent=Dichlo
 romethane)\\estrutura 4\\0,1\Pt,0,0.124401,0.324503,-0.147109\H,0,0.40
 5972,1.757592,-0.718867\Sn,0,-0.39723,-2.13138,0.97844\P,0,-2.127415,0
 .83524,-0.596118\P,0,2.472736,0.157302,0.087241\Cl,0,-2.039285,-2.2094
 36,2.798226\Cl,0,-1.200403,-4.045057,-0.31065\Cl,0,1.415976,-3.322378,
 2.15478\C,0,-3.103865,1.371418,0.861585\C,0,-4.492452,1.576389,0.77246
 5\C,0,-2.447211,1.640092,2.074608\C,0,-5.207777,2.042209,1.877715\H,0,
 -5.023742,1.368203,-0.158697\C,0,-3.164306,2.112197,3.178581\H,0,-1.36
 9864,1.482131,2.152653\C,0,-4.544822,2.31452,3.080892\H,0,-6.288138,2.
 193738,1.797865\H,0,-2.642571,2.320236,4.114389\H,0,-5.107896,2.68282,
 3.941999\C,0,-3.044726,-0.561395,-1.370144\C,0,-2.749421,-0.899295,-2.
 704017\C,0,-3.966242,-1.344767,-0.654796\C,0,-3.386534,-1.979513,-3.31
 7434\H,0,-2.010111,-0.329369,-3.272774\C,0,-4.59983,-2.426449,-1.27473
 1\H,0,-4.181106,-1.129205,0.393603\C,0,-4.319022,-2.741967,-2.605705\H
 ,0,-3.147756,-2.227683,-4.35321\H,0,-5.311745,-3.029599,-0.706572\H,0,
 -4.813386,-3.58953,-3.086841\C,0,-2.392241,2.210394,-1.851683\H,0,-3.4
 75278,2.230055,-2.048161\H,0,-1.898044,1.86858,-2.772714\C,0,-1.888933
 ,3.577866,-1.462361\C,0,-0.635283,4.03585,-1.903997\C,0,-2.672261,4.43
 6472,-0.66984\C,0,-0.17227,5.309505,-1.555455\H,0,-0.019636,3.394458,-
 2.539506\C,0,-2.210539,5.708631,-0.319227\H,0,-3.657488,4.109464,-0.32
 9552\C,0,-0.957161,6.148539,-0.758086\H,0,0.804139,5.647253,-1.912692\
 H,0,-2.837454,6.360792,0.294823\H,0,-0.597612,7.144734,-0.486897\C,0,3
 .429501,1.521523,-0.713059\C,0,3.141297,2.841018,-0.316983\C,0,4.43684
 4,1.303552,-1.66568\C,0,3.849532,3.915696,-0.855317\H,0,2.357487,3.031
 803,0.418631\C,0,5.138247,2.384601,-2.213794\H,0,4.6928,0.296047,-1.99
 799\C,0,4.849749,3.690152,-1.808975\H,0,3.616199,4.933355,-0.530757\H,
 0,5.916102,2.19707,-2.959518\H,0,5.402489,4.531213,-2.234287\C,0,3.051
 974,0.24432,1.834856\C,0,4.357491,-0.142873,2.190224\C,0,2.18713,0.723
 467,2.832006\C,0,4.78109,-0.060914,3.519062\H,0,5.056369,-0.513102,1.4
 37704\C,0,2.618175,0.814688,4.160074\H,0,1.169086,1.02318,2.571532\C,0
 ,3.91255,0.4172,4.506354\H,0,5.793103,-0.375985,3.785408\H,0,1.932295,
 1.187087,4.925147\H,0,4.246788,0.480252,5.545134\C,0,3.184828,-1.43728
 6,-0.548227\H,0,4.271527,-1.305428,-0.678443\H,0,3.054915,-2.139101,0.
 288865\C,0,2.560603,-2.02585,-1.800019\C,0,2.33474,-3.412103,-1.855431
 \C,0,2.225363,-1.252322,-2.925861\C,0,1.804677,-4.010375,-3.002\H,0,2.
 56463,-4.028745,-0.9828\C,0,1.696934,-1.84934,-4.07461\H,0,2.372937,-0
 .171175,-2.915193\C,0,1.487106,-3.231034,-4.118529\H,0,1.630822,-5.089
 635,-3.017139\H,0,1.446903,-1.227786,-4.93874\H,0,1.071098,-3.696143,-
 5.015555\\Version=EM64L-G09RevD.01\State=1-A\HF=-26621.4580941\RMSD=3.
 721e-05\Dipole=0.7623451,4.9004426,-2.1287881\Quadrupole=23.341846,-24
 .4717665,1.1299205,-3.674697,1.7676559,20.6185396\PG=C01 [X(C38H35Cl3P
 2Pt1Sn1)]\\@


 THE ONLY EXISTING THINGS ARE ATOMS AND EMPTY SPACE;
 ALL ELSE IS MERE OPINION. -- DEMOCRITUS OF ABDERA D. 370 B.C.
 EXPERIMENTS ARE THE ONLY MEANS OF KNOWLEDGE AT OUR DISPOSAL
 THE REST IS POETRY, IMAGINATION. -- MAX PLANCK
 Job cpu time:       1 days  9 hours 40 minutes 47.4 seconds.
 File lengths (MBytes):  RWF=   2192 Int=      0 D2E=      0 Chk=    155 Scr=      1
 Normal termination of Gaussian 09 at Fri Sep  7 09:30:01 2018.
