 Entering Gaussian System, Link 0=g09
 Input=estrutura11.com
 Output=estrutura11.log
 Initial command:
 /scr/programs/g09/l1.exe "/scr/diego/Gau-6625.inp" -scrdir="/scr/diego/"
 Entering Link 1 = /scr/programs/g09/l1.exe PID=      6626.
  
 Copyright (c) 1988,1990,1992,1993,1995,1998,2003,2009,2013,
            Gaussian, Inc.  All Rights Reserved.
  
 This is part of the Gaussian(R) 09 program.  It is based on
 the Gaussian(R) 03 system (copyright 2003, Gaussian, Inc.),
 the Gaussian(R) 98 system (copyright 1998, Gaussian, Inc.),
 the Gaussian(R) 94 system (copyright 1995, Gaussian, Inc.),
 the Gaussian 92(TM) system (copyright 1992, Gaussian, Inc.),
 the Gaussian 90(TM) system (copyright 1990, Gaussian, Inc.),
 the Gaussian 88(TM) system (copyright 1988, Gaussian, Inc.),
 the Gaussian 86(TM) system (copyright 1986, Carnegie Mellon
 University), and the Gaussian 82(TM) system (copyright 1983,
 Carnegie Mellon University). Gaussian is a federally registered
 trademark of Gaussian, Inc.
  
 This software contains proprietary and confidential information,
 including trade secrets, belonging to Gaussian, Inc.
  
 This software is provided under written license and may be
 used, copied, transmitted, or stored only in accord with that
 written license.
  
 The following legend is applicable only to US Government
 contracts under FAR:
  
                    RESTRICTED RIGHTS LEGEND
  
 Use, reproduction and disclosure by the US Government is
 subject to restrictions as set forth in subparagraphs (a)
 and (c) of the Commercial Computer Software - Restricted
 Rights clause in FAR 52.227-19.
  
 Gaussian, Inc.
 340 Quinnipiac St., Bldg. 40, Wallingford CT 06492
  
  
 ---------------------------------------------------------------
 Warning -- This program may not be used in any manner that
 competes with the business of Gaussian, Inc. or will provide
 assistance to any competitor of Gaussian, Inc.  The licensee
 of this program is prohibited from giving any competitor of
 Gaussian, Inc. access to this program.  By using this program,
 the user acknowledges that Gaussian, Inc. is engaged in the
 business of creating and licensing software in the field of
 computational chemistry and represents and warrants to the
 licensee that it is not a competitor of Gaussian, Inc. and that
 it will not use this program in any manner prohibited above.
 ---------------------------------------------------------------
  

 Cite this work as:
 Gaussian 09, Revision D.01,
 M. J. Frisch, G. W. Trucks, H. B. Schlegel, G. E. Scuseria, 
 M. A. Robb, J. R. Cheeseman, G. Scalmani, V. Barone, B. Mennucci, 
 G. A. Petersson, H. Nakatsuji, M. Caricato, X. Li, H. P. Hratchian, 
 A. F. Izmaylov, J. Bloino, G. Zheng, J. L. Sonnenberg, M. Hada, 
 M. Ehara, K. Toyota, R. Fukuda, J. Hasegawa, M. Ishida, T. Nakajima, 
 Y. Honda, O. Kitao, H. Nakai, T. Vreven, J. A. Montgomery, Jr., 
 J. E. Peralta, F. Ogliaro, M. Bearpark, J. J. Heyd, E. Brothers, 
 K. N. Kudin, V. N. Staroverov, T. Keith, R. Kobayashi, J. Normand, 
 K. Raghavachari, A. Rendell, J. C. Burant, S. S. Iyengar, J. Tomasi, 
 M. Cossi, N. Rega, J. M. Millam, M. Klene, J. E. Knox, J. B. Cross, 
 V. Bakken, C. Adamo, J. Jaramillo, R. Gomperts, R. E. Stratmann, 
 O. Yazyev, A. J. Austin, R. Cammi, C. Pomelli, J. W. Ochterski, 
 R. L. Martin, K. Morokuma, V. G. Zakrzewski, G. A. Voth, 
 P. Salvador, J. J. Dannenberg, S. Dapprich, A. D. Daniels, 
 O. Farkas, J. B. Foresman, J. V. Ortiz, J. Cioslowski, 
 and D. J. Fox, Gaussian, Inc., Wallingford CT, 2013.
 
 ******************************************
 Gaussian 09:  EM64L-G09RevD.01 24-Apr-2013
                 5-Sep-2018 
 ******************************************
 %mem=15Gb
 %nproc=8
 Will use up to    8 processors via shared memory.
 ----------------------------------------------------------------------
 #PBEPBE/gen scf=(maxcycle=1000,conver=4) NMR=GIAO Scrf=(solvent=Chloro
 form)
 ----------------------------------------------------------------------
 1/38=1/1;
 2/12=2,17=6,18=5,40=1/2;
 3/5=7,11=2,16=1,25=1,30=1,70=2201,72=7,74=1009/1,2,8,3;
 4//1;
 5/5=2,6=4,7=1000,38=5,53=7/2;
 8/6=1,10=90,11=11/1;
 10/13=100,45=16/2;
 6/7=2,8=2,9=2,10=2,28=1/1;
 99/9=1/99;
 Leave Link    1 at Wed Sep  5 20:57:46 2018, MaxMem=  2013265920 cpu:         0.9
 (Enter /scr/programs/g09/l101.exe)
 ------------
 estrutura 11
 ------------
 Symbolic Z-matrix:
 Charge =  0 Multiplicity = 1
 Pt                   -0.14506  -0.89084  -0.10508 
 Sn                   -2.56982  -2.03033  -0.07308 
 Cl                   -4.67363  -0.81456   0.06688 
 Cl                   -2.93611  -3.44187   1.86428 
 Cl                   -3.14116  -3.48825  -1.91399 
 Cl                    0.33844  -3.2769   -0.17122 
 P                    -1.0062    1.26813  -0.07394 
 P                     2.21058  -0.41353   0.07538 
 C                     0.10348   2.71685  -0.34678 
 C                     0.87761   3.22019   0.714 
 C                     0.18357   3.35565  -1.59292 
 C                     1.70046   4.32945   0.52807 
 H                     0.82611   2.75994   1.7003 
 C                     1.01371   4.4646   -1.77074 
 H                    -0.41139   3.0001   -2.43439 
 C                     1.78884   4.97316  -0.71732 
 H                     2.28454   4.70555   1.37298 
 H                     1.05384   4.94593  -2.7501 
 C                    -1.82262   1.69188   1.52155 
 C                    -2.2001    3.02022   1.80435 
 C                    -2.07595   0.71057   2.49315 
 C                    -2.83412   3.33927   3.00453 
 H                    -1.98483   3.82205   1.09561 
 C                    -2.70571   1.04079   3.69458 
 H                    -1.76694  -0.32215   2.32633 
 C                    -3.10623   2.3551    3.97172 
 H                    -3.11732   4.37968   3.19643 
 H                    -2.88555   0.25405   4.43064 
 C                    -2.25657   1.4385   -1.4205 
 C                    -3.38885   2.26048  -1.29945 
 C                    -2.06028   0.74708  -2.62712 
 C                    -4.28852   2.38759  -2.35595 
 H                    -3.59445   2.7874   -0.36745 
 C                    -2.96482   0.88358  -3.68355 
 H                    -1.20543   0.0768   -2.74797 
 C                    -4.0955    1.7067   -3.57002 
 H                    -5.17033   3.02167  -2.22927 
 H                    -2.79194   0.32554  -4.60846 
 C                     2.54536   0.36235   1.70896 
 C                     3.45112   1.41178   1.93273 
 C                     1.85589  -0.17202   2.81237 
 C                     3.66805   1.89709   3.2236 
 H                     3.98262   1.8758    1.10223 
 C                     2.08522   0.31417   4.10139 
 H                     1.13218  -0.97752   2.66834 
 C                     2.99675   1.35592   4.33398 
 H                     4.37735   2.7166    3.37016 
 H                     1.54013  -0.12506   4.94061 
 C                     2.94599   0.56189  -1.29667 
 C                     4.30369   0.93856  -1.29397 
 C                     2.193     0.78859  -2.46153 
 C                     4.8686    1.56401  -2.40601 
 H                     4.94366   0.71834  -0.43446 
 C                     2.77304   1.39235  -3.579 
 H                     1.15224   0.46636  -2.50336 
 C                     4.11608   1.80434  -3.56912 
 H                     5.92648   1.85232  -2.37587 
 H                     2.16735   1.54102  -4.47779 
 C                     3.29045  -1.90792   0.04678 
 C                     3.50813  -2.55201  -1.18373 
 C                     3.90486  -2.42868   1.19458 
 C                     4.32951  -3.67466  -1.26111 
 H                     3.03429  -2.17717  -2.09342 
 C                     4.72703  -3.5557    1.10691 
 H                     3.7522   -1.95897   2.16733 
 C                     4.95962  -4.19759  -0.11886 
 H                     4.48133  -4.15876  -2.22989 
 H                     5.19758  -3.94161   2.01568 
 C                    -3.81729   2.70245   5.25444 
 H                    -3.6503    3.75122   5.54002 
 H                    -4.90594   2.56278   5.14318 
 H                    -3.49157   2.05838   6.08434 
 C                    -5.08225   1.85058  -4.70027 
 H                    -6.10034   1.58499  -4.37185 
 H                    -5.12317   2.89267  -5.06014 
 H                    -4.82037   1.20687  -5.55215 
 C                     2.69158   6.16526  -0.91005 
 H                     2.48272   6.6848   -1.85768 
 H                     2.57911   6.88997  -0.0876 
 H                     3.75259   5.85732  -0.925 
 C                     3.24154   1.89134   5.72164 
 H                     2.76      1.26645   6.48748 
 H                     4.31931   1.94031   5.94545 
 H                     2.84577   2.9158    5.82577 
 C                     5.87594  -5.39147  -0.21269 
 H                     5.63616  -6.01689  -1.08575 
 H                     6.92804  -5.07151  -0.31724 
 H                     5.81629  -6.01842   0.69025 
 C                     4.72634   2.48093  -4.77117 
 H                     5.82264   2.52695  -4.69833 
 H                     4.46302   1.95567  -5.70271 
 H                     4.35417   3.51531  -4.86915 
 
 NAtoms=     92 NQM=       92 NQMF=       0 NMMI=      0 NMMIF=      0
                NMic=       0 NMicF=      0.
                    Isotopes and Nuclear Properties:
 (Nuclear quadrupole moments (NQMom) in fm**2, nuclear magnetic moments (NMagM)
  in nuclear magnetons)

  Atom         1           2           3           4           5           6           7           8           9          10
 IAtWgt=         195         118          35          35          35          35          31          31          12          12
 AtmWgt= 194.9648000 117.9018000  34.9688527  34.9688527  34.9688527  34.9688527  30.9737634  30.9737634  12.0000000  12.0000000
 NucSpn=           1           0           3           3           3           3           1           1           0           0
 AtZEff=   0.0000000   0.0000000   0.0000000   0.0000000   0.0000000   0.0000000   0.0000000   0.0000000   0.0000000   0.0000000
 NQMom=    0.0000000   0.0000000  -8.1650000  -8.1650000  -8.1650000  -8.1650000   0.0000000   0.0000000   0.0000000   0.0000000
 NMagM=    0.6095000   0.0000000   0.8218740   0.8218740   0.8218740   0.8218740   1.1316000   1.1316000   0.0000000   0.0000000
 AtZNuc=  78.0000000  50.0000000  17.0000000  17.0000000  17.0000000  17.0000000  15.0000000  15.0000000   6.0000000   6.0000000

  Atom        11          12          13          14          15          16          17          18          19          20
 IAtWgt=          12          12           1          12           1          12           1           1          12          12
 AtmWgt=  12.0000000  12.0000000   1.0078250  12.0000000   1.0078250  12.0000000   1.0078250   1.0078250  12.0000000  12.0000000
 NucSpn=           0           0           1           0           1           0           1           1           0           0
 AtZEff=   0.0000000   0.0000000   0.0000000   0.0000000   0.0000000   0.0000000   0.0000000   0.0000000   0.0000000   0.0000000
 NQMom=    0.0000000   0.0000000   0.0000000   0.0000000   0.0000000   0.0000000   0.0000000   0.0000000   0.0000000   0.0000000
 NMagM=    0.0000000   0.0000000   2.7928460   0.0000000   2.7928460   0.0000000   2.7928460   2.7928460   0.0000000   0.0000000
 AtZNuc=   6.0000000   6.0000000   1.0000000   6.0000000   1.0000000   6.0000000   1.0000000   1.0000000   6.0000000   6.0000000

  Atom        21          22          23          24          25          26          27          28          29          30
 IAtWgt=          12          12           1          12           1          12           1           1          12          12
 AtmWgt=  12.0000000  12.0000000   1.0078250  12.0000000   1.0078250  12.0000000   1.0078250   1.0078250  12.0000000  12.0000000
 NucSpn=           0           0           1           0           1           0           1           1           0           0
 AtZEff=   0.0000000   0.0000000   0.0000000   0.0000000   0.0000000   0.0000000   0.0000000   0.0000000   0.0000000   0.0000000
 NQMom=    0.0000000   0.0000000   0.0000000   0.0000000   0.0000000   0.0000000   0.0000000   0.0000000   0.0000000   0.0000000
 NMagM=    0.0000000   0.0000000   2.7928460   0.0000000   2.7928460   0.0000000   2.7928460   2.7928460   0.0000000   0.0000000
 AtZNuc=   6.0000000   6.0000000   1.0000000   6.0000000   1.0000000   6.0000000   1.0000000   1.0000000   6.0000000   6.0000000

  Atom        31          32          33          34          35          36          37          38          39          40
 IAtWgt=          12          12           1          12           1          12           1           1          12          12
 AtmWgt=  12.0000000  12.0000000   1.0078250  12.0000000   1.0078250  12.0000000   1.0078250   1.0078250  12.0000000  12.0000000
 NucSpn=           0           0           1           0           1           0           1           1           0           0
 AtZEff=   0.0000000   0.0000000   0.0000000   0.0000000   0.0000000   0.0000000   0.0000000   0.0000000   0.0000000   0.0000000
 NQMom=    0.0000000   0.0000000   0.0000000   0.0000000   0.0000000   0.0000000   0.0000000   0.0000000   0.0000000   0.0000000
 NMagM=    0.0000000   0.0000000   2.7928460   0.0000000   2.7928460   0.0000000   2.7928460   2.7928460   0.0000000   0.0000000
 AtZNuc=   6.0000000   6.0000000   1.0000000   6.0000000   1.0000000   6.0000000   1.0000000   1.0000000   6.0000000   6.0000000

  Atom        41          42          43          44          45          46          47          48          49          50
 IAtWgt=          12          12           1          12           1          12           1           1          12          12
 AtmWgt=  12.0000000  12.0000000   1.0078250  12.0000000   1.0078250  12.0000000   1.0078250   1.0078250  12.0000000  12.0000000
 NucSpn=           0           0           1           0           1           0           1           1           0           0
 AtZEff=   0.0000000   0.0000000   0.0000000   0.0000000   0.0000000   0.0000000   0.0000000   0.0000000   0.0000000   0.0000000
 NQMom=    0.0000000   0.0000000   0.0000000   0.0000000   0.0000000   0.0000000   0.0000000   0.0000000   0.0000000   0.0000000
 NMagM=    0.0000000   0.0000000   2.7928460   0.0000000   2.7928460   0.0000000   2.7928460   2.7928460   0.0000000   0.0000000
 AtZNuc=   6.0000000   6.0000000   1.0000000   6.0000000   1.0000000   6.0000000   1.0000000   1.0000000   6.0000000   6.0000000

  Atom        51          52          53          54          55          56          57          58          59          60
 IAtWgt=          12          12           1          12           1          12           1           1          12          12
 AtmWgt=  12.0000000  12.0000000   1.0078250  12.0000000   1.0078250  12.0000000   1.0078250   1.0078250  12.0000000  12.0000000
 NucSpn=           0           0           1           0           1           0           1           1           0           0
 AtZEff=   0.0000000   0.0000000   0.0000000   0.0000000   0.0000000   0.0000000   0.0000000   0.0000000   0.0000000   0.0000000
 NQMom=    0.0000000   0.0000000   0.0000000   0.0000000   0.0000000   0.0000000   0.0000000   0.0000000   0.0000000   0.0000000
 NMagM=    0.0000000   0.0000000   2.7928460   0.0000000   2.7928460   0.0000000   2.7928460   2.7928460   0.0000000   0.0000000
 AtZNuc=   6.0000000   6.0000000   1.0000000   6.0000000   1.0000000   6.0000000   1.0000000   1.0000000   6.0000000   6.0000000

  Atom        61          62          63          64          65          66          67          68          69          70
 IAtWgt=          12          12           1          12           1          12           1           1          12           1
 AtmWgt=  12.0000000  12.0000000   1.0078250  12.0000000   1.0078250  12.0000000   1.0078250   1.0078250  12.0000000   1.0078250
 NucSpn=           0           0           1           0           1           0           1           1           0           1
 AtZEff=   0.0000000   0.0000000   0.0000000   0.0000000   0.0000000   0.0000000   0.0000000   0.0000000   0.0000000   0.0000000
 NQMom=    0.0000000   0.0000000   0.0000000   0.0000000   0.0000000   0.0000000   0.0000000   0.0000000   0.0000000   0.0000000
 NMagM=    0.0000000   0.0000000   2.7928460   0.0000000   2.7928460   0.0000000   2.7928460   2.7928460   0.0000000   2.7928460
 AtZNuc=   6.0000000   6.0000000   1.0000000   6.0000000   1.0000000   6.0000000   1.0000000   1.0000000   6.0000000   1.0000000

  Atom        71          72          73          74          75          76          77          78          79          80
 IAtWgt=           1           1          12           1           1           1          12           1           1           1
 AtmWgt=   1.0078250   1.0078250  12.0000000   1.0078250   1.0078250   1.0078250  12.0000000   1.0078250   1.0078250   1.0078250
 NucSpn=           1           1           0           1           1           1           0           1           1           1
 AtZEff=   0.0000000   0.0000000   0.0000000   0.0000000   0.0000000   0.0000000   0.0000000   0.0000000   0.0000000   0.0000000
 NQMom=    0.0000000   0.0000000   0.0000000   0.0000000   0.0000000   0.0000000   0.0000000   0.0000000   0.0000000   0.0000000
 NMagM=    2.7928460   2.7928460   0.0000000   2.7928460   2.7928460   2.7928460   0.0000000   2.7928460   2.7928460   2.7928460
 AtZNuc=   1.0000000   1.0000000   6.0000000   1.0000000   1.0000000   1.0000000   6.0000000   1.0000000   1.0000000   1.0000000

  Atom        81          82          83          84          85          86          87          88          89          90
 IAtWgt=          12           1           1           1          12           1           1           1          12           1
 AtmWgt=  12.0000000   1.0078250   1.0078250   1.0078250  12.0000000   1.0078250   1.0078250   1.0078250  12.0000000   1.0078250
 NucSpn=           0           1           1           1           0           1           1           1           0           1
 AtZEff=   0.0000000   0.0000000   0.0000000   0.0000000   0.0000000   0.0000000   0.0000000   0.0000000   0.0000000   0.0000000
 NQMom=    0.0000000   0.0000000   0.0000000   0.0000000   0.0000000   0.0000000   0.0000000   0.0000000   0.0000000   0.0000000
 NMagM=    0.0000000   2.7928460   2.7928460   2.7928460   0.0000000   2.7928460   2.7928460   2.7928460   0.0000000   2.7928460
 AtZNuc=   6.0000000   1.0000000   1.0000000   1.0000000   6.0000000   1.0000000   1.0000000   1.0000000   6.0000000   1.0000000

  Atom        91          92
 IAtWgt=           1           1
 AtmWgt=   1.0078250   1.0078250
 NucSpn=           1           1
 AtZEff=   0.0000000   0.0000000
 NQMom=    0.0000000   0.0000000
 NMagM=    2.7928460   2.7928460
 AtZNuc=   1.0000000   1.0000000
 Leave Link  101 at Wed Sep  5 20:57:46 2018, MaxMem=  2013265920 cpu:         1.5
 (Enter /scr/programs/g09/l202.exe)
 Stoichiometry    C42H42Cl4P2PtSn
 Framework group  C1[X(C42H42Cl4P2PtSn)]
 Deg. of freedom   270
 Full point group                 C1      NOp   1
 Largest Abelian subgroup         C1      NOp   1
 Largest concise Abelian subgroup C1      NOp   1
                         Standard orientation:                         
 ---------------------------------------------------------------------
 Center     Atomic      Atomic             Coordinates (Angstroms)
 Number     Number       Type             X           Y           Z
 ---------------------------------------------------------------------
      1         78           0       -0.145059   -0.890844   -0.105081
      2         50           0       -2.569819   -2.030327   -0.073082
      3         17           0       -4.673634   -0.814556    0.066876
      4         17           0       -2.936108   -3.441869    1.864275
      5         17           0       -3.141162   -3.488252   -1.913991
      6         17           0        0.338441   -3.276895   -0.171219
      7         15           0       -1.006196    1.268131   -0.073941
      8         15           0        2.210581   -0.413529    0.075377
      9          6           0        0.103475    2.716845   -0.346775
     10          6           0        0.877607    3.220195    0.714002
     11          6           0        0.183570    3.355648   -1.592915
     12          6           0        1.700462    4.329450    0.528070
     13          1           0        0.826105    2.759940    1.700299
     14          6           0        1.013707    4.464595   -1.770739
     15          1           0       -0.411387    3.000102   -2.434391
     16          6           0        1.788838    4.973159   -0.717317
     17          1           0        2.284536    4.705547    1.372981
     18          1           0        1.053838    4.945929   -2.750101
     19          6           0       -1.822624    1.691883    1.521545
     20          6           0       -2.200100    3.020225    1.804349
     21          6           0       -2.075952    0.710566    2.493147
     22          6           0       -2.834118    3.339271    3.004525
     23          1           0       -1.984830    3.822053    1.095608
     24          6           0       -2.705709    1.040793    3.694582
     25          1           0       -1.766941   -0.322151    2.326330
     26          6           0       -3.106227    2.355099    3.971719
     27          1           0       -3.117322    4.379682    3.196430
     28          1           0       -2.885553    0.254047    4.430644
     29          6           0       -2.256567    1.438500   -1.420502
     30          6           0       -3.388845    2.260480   -1.299445
     31          6           0       -2.060280    0.747078   -2.627119
     32          6           0       -4.288522    2.387587   -2.355947
     33          1           0       -3.594455    2.787404   -0.367452
     34          6           0       -2.964819    0.883581   -3.683554
     35          1           0       -1.205434    0.076797   -2.747974
     36          6           0       -4.095500    1.706702   -3.570022
     37          1           0       -5.170331    3.021671   -2.229268
     38          1           0       -2.791938    0.325535   -4.608464
     39          6           0        2.545359    0.362353    1.708959
     40          6           0        3.451121    1.411779    1.932727
     41          6           0        1.855894   -0.172016    2.812374
     42          6           0        3.668052    1.897093    3.223598
     43          1           0        3.982616    1.875800    1.102225
     44          6           0        2.085221    0.314165    4.101392
     45          1           0        1.132183   -0.977522    2.668335
     46          6           0        2.996747    1.355917    4.333978
     47          1           0        4.377346    2.716598    3.370155
     48          1           0        1.540128   -0.125057    4.940608
     49          6           0        2.945986    0.561891   -1.296669
     50          6           0        4.303688    0.938561   -1.293965
     51          6           0        2.193005    0.788587   -2.461534
     52          6           0        4.868600    1.564011   -2.406007
     53          1           0        4.943658    0.718339   -0.434460
     54          6           0        2.773035    1.392345   -3.579004
     55          1           0        1.152243    0.466357   -2.503360
     56          6           0        4.116085    1.804335   -3.569119
     57          1           0        5.926478    1.852316   -2.375866
     58          1           0        2.167354    1.541022   -4.477793
     59          6           0        3.290449   -1.907917    0.046777
     60          6           0        3.508126   -2.552012   -1.183733
     61          6           0        3.904855   -2.428676    1.194581
     62          6           0        4.329513   -3.674660   -1.261109
     63          1           0        3.034290   -2.177168   -2.093424
     64          6           0        4.727031   -3.555694    1.106908
     65          1           0        3.752195   -1.958970    2.167331
     66          6           0        4.959616   -4.197586   -0.118860
     67          1           0        4.481328   -4.158762   -2.229893
     68          1           0        5.197584   -3.941606    2.015679
     69          6           0       -3.817285    2.702446    5.254438
     70          1           0       -3.650304    3.751218    5.540017
     71          1           0       -4.905941    2.562774    5.143175
     72          1           0       -3.491574    2.058383    6.084338
     73          6           0       -5.082246    1.850581   -4.700266
     74          1           0       -6.100339    1.584984   -4.371851
     75          1           0       -5.123168    2.892672   -5.060137
     76          1           0       -4.820374    1.206868   -5.552146
     77          6           0        2.691582    6.165257   -0.910048
     78          1           0        2.482718    6.684798   -1.857675
     79          1           0        2.579107    6.889973   -0.087599
     80          1           0        3.752593    5.857318   -0.924996
     81          6           0        3.241537    1.891339    5.721638
     82          1           0        2.759995    1.266448    6.487478
     83          1           0        4.319308    1.940308    5.945454
     84          1           0        2.845768    2.915804    5.825770
     85          6           0        5.875939   -5.391465   -0.212685
     86          1           0        5.636165   -6.016890   -1.085748
     87          1           0        6.928037   -5.071505   -0.317240
     88          1           0        5.816288   -6.018423    0.690250
     89          6           0        4.726336    2.480930   -4.771170
     90          1           0        5.822640    2.526953   -4.698334
     91          1           0        4.463020    1.955665   -5.702710
     92          1           0        4.354168    3.515306   -4.869154
 ---------------------------------------------------------------------
 Rotational constants (GHZ):      0.0477288      0.0386071      0.0347167
 Leave Link  202 at Wed Sep  5 20:57:46 2018, MaxMem=  2013265920 cpu:         0.1
 (Enter /scr/programs/g09/l301.exe)
 General basis read from cards:  (5D, 7F)
 Centers:      13     15     17     18     23     25     27     28     33     35
 Centers:      37     38     43     45     47     48     53     55     57     58
 Centers:      63     65     67     68     70     71     72     74     75     76
 Centers:      78     79     80     82     83     84     86     87     88     90
 Centers:      91     92
 S 5 1.00
     Exponent=  2.8295215633D+02 Coefficients=  4.3000000000D-04
     Exponent=  8.7062201949D+01 Coefficients=  5.1000000000D-04
     Exponent=  2.6788369830D+01 Coefficients=  6.1600000000D-03
     Exponent=  8.2425753324D+00 Coefficients=  1.3030000000D-02
     Exponent=  2.5361770254D+00 Coefficients=  9.9490000000D-02
 S 1 1.00
     Exponent=  7.8036216165D-01 Coefficients=  1.0000000000D+00
 S 1 1.00
     Exponent=  2.4011143435D-01 Coefficients=  1.0000000000D+00
 P 1 1.00
     Exponent=  8.8150000000D-01 Coefficients=  1.0000000000D+00
 P 1 1.00
     Exponent=  1.7989200000D-01 Coefficients=  1.0000000000D+00
 ****
 Centers:       9     10     11     12     14     16     19     20     21     22
 Centers:      24     26     29     30     31     32     34     36     39     40
 Centers:      41     42     44     46     49     50     51     52     54     56
 Centers:      59     60     61     62     64     66     69     73     77     81
 Centers:      85     89
 S 6 1.00
     Exponent=  8.8461235339D+03 Coefficients=  5.3000000000D-04
     Exponent=  2.9487078446D+03 Coefficients=  7.7000000000D-04
     Exponent=  9.8290261488D+02 Coefficients=  4.0500000000D-03
     Exponent=  3.2763420496D+02 Coefficients=  1.4030000000D-02
     Exponent=  1.0921140165D+02 Coefficients=  5.3450000000D-02
     Exponent=  3.6403800551D+01 Coefficients=  1.7027000000D-01
 S 1 1.00
     Exponent=  1.2134600184D+01 Coefficients=  1.0000000000D+00
 S 1 1.00
     Exponent=  4.0448667279D+00 Coefficients=  1.0000000000D+00
 S 1 1.00
     Exponent=  1.3482889093D+00 Coefficients=  1.0000000000D+00
 S 1 1.00
     Exponent=  4.4942963643D-01 Coefficients=  1.0000000000D+00
 S 1 1.00
     Exponent=  1.4980987881D-01 Coefficients=  1.0000000000D+00
 P 4 1.00
     Exponent=  3.7294093393D+01 Coefficients=  3.9600000000D-03
     Exponent=  1.1475105659D+01 Coefficients=  1.8890000000D-02
     Exponent=  3.5308017414D+00 Coefficients=  9.4610000000D-02
     Exponent=  1.0864005358D+00 Coefficients=  3.1889000000D-01
 P 1 1.00
     Exponent=  3.3427708794D-01 Coefficients=  1.0000000000D+00
 P 1 1.00
     Exponent=  1.0285448860D-01 Coefficients=  1.0000000000D+00
 D 1 1.00
     Exponent=  4.7750000000D-01 Coefficients=  1.0000000000D+00
 D 1 1.00
     Exponent=  1.1998000000D-01 Coefficients=  1.0000000000D+00
 ****
 Centers:       7      8
 S 7 1.00
     Exponent=  5.9538004301D+04 Coefficients=  9.5000000000D-04
     Exponent=  2.1650183382D+04 Coefficients=  6.1000000000D-04
     Exponent=  7.8727939572D+03 Coefficients=  3.7500000000D-03
     Exponent=  2.8628341663D+03 Coefficients=  9.6300000000D-03
     Exponent=  1.0410306059D+03 Coefficients=  3.2430000000D-02
     Exponent=  3.7855658397D+02 Coefficients=  9.9500000000D-02
     Exponent=  1.3765693962D+02 Coefficients=  2.6570000000D-01
 S 1 1.00
     Exponent=  5.0057068954D+01 Coefficients=  1.0000000000D+00
 S 1 1.00
     Exponent=  1.8202570529D+01 Coefficients=  1.0000000000D+00
 S 1 1.00
     Exponent=  6.6191165560D+00 Coefficients=  1.0000000000D+00
 S 1 1.00
     Exponent=  2.4069514749D+00 Coefficients=  1.0000000000D+00
 S 1 1.00
     Exponent=  8.7525508178D-01 Coefficients=  1.0000000000D+00
 S 1 1.00
     Exponent=  3.1827457519D-01 Coefficients=  1.0000000000D+00
 S 1 1.00
     Exponent=  1.1573620916D-01 Coefficients=  1.0000000000D+00
 S 1 1.00
     Exponent=  4.2085894240D-02 Coefficients=  1.0000000000D+00
 P 5 1.00
     Exponent=  4.8799672315D+02 Coefficients=  2.1600000000D-03
     Exponent=  1.6266557438D+02 Coefficients=  9.7900000000D-03
     Exponent=  5.4221858128D+01 Coefficients=  5.4850000000D-02
     Exponent=  1.8073952709D+01 Coefficients=  2.1770000000D-01
     Exponent=  6.0246509031D+00 Coefficients=  4.8978000000D-01
 P 1 1.00
     Exponent=  2.0082169677D+00 Coefficients=  1.0000000000D+00
 P 1 1.00
     Exponent=  6.6940565590D-01 Coefficients=  1.0000000000D+00
 P 1 1.00
     Exponent=  2.2313521863D-01 Coefficients=  1.0000000000D+00
 P 1 1.00
     Exponent=  7.4378406211D-02 Coefficients=  1.0000000000D+00
 P 1 1.00
     Exponent=  2.4792802070D-02 Coefficients=  1.0000000000D+00
 D 1 1.00
     Exponent=  3.5395000000D-01 Coefficients=  1.0000000000D+00
 D 1 1.00
     Exponent=  8.9098000000D-02 Coefficients=  1.0000000000D+00
 ****
 Centers:       3      4      5      6
 S 7 1.00
     Exponent=  7.7142817164D+04 Coefficients=  1.0600000000D-03
     Exponent=  2.8051933514D+04 Coefficients=  6.4000000000D-04
     Exponent=  1.0200703096D+04 Coefficients=  3.9600000000D-03
     Exponent=  3.7093465804D+03 Coefficients=  9.8300000000D-03
     Exponent=  1.3488533020D+03 Coefficients=  3.2690000000D-02
     Exponent=  4.9049210981D+02 Coefficients=  9.9520000000D-02
     Exponent=  1.7836076720D+02 Coefficients=  2.6555000000D-01
 S 1 1.00
     Exponent=  6.4858460801D+01 Coefficients=  1.0000000000D+00
 S 1 1.00
     Exponent=  2.3584894837D+01 Coefficients=  1.0000000000D+00
 S 1 1.00
     Exponent=  8.5763253951D+00 Coefficients=  1.0000000000D+00
 S 1 1.00
     Exponent=  3.1186637801D+00 Coefficients=  1.0000000000D+00
 S 1 1.00
     Exponent=  1.1340595564D+00 Coefficients=  1.0000000000D+00
 S 1 1.00
     Exponent=  4.1238529323D-01 Coefficients=  1.0000000000D+00
 S 1 1.00
     Exponent=  1.4995828845D-01 Coefficients=  1.0000000000D+00
 S 1 1.00
     Exponent=  5.4530286708D-02 Coefficients=  1.0000000000D+00
 P 5 1.00
     Exponent=  6.9498536057D+02 Coefficients=  2.0000000000D-03
     Exponent=  2.3166178686D+02 Coefficients=  8.9500000000D-03
     Exponent=  7.7220595619D+01 Coefficients=  5.1130000000D-02
     Exponent=  2.5740198540D+01 Coefficients=  2.1011000000D-01
     Exponent=  8.5800661799D+00 Coefficients=  4.9738000000D-01
 P 1 1.00
     Exponent=  2.8600220600D+00 Coefficients=  1.0000000000D+00
 P 1 1.00
     Exponent=  9.5334068665D-01 Coefficients=  1.0000000000D+00
 P 1 1.00
     Exponent=  3.1778022888D-01 Coefficients=  1.0000000000D+00
 P 1 1.00
     Exponent=  1.0592674296D-01 Coefficients=  1.0000000000D+00
 P 1 1.00
     Exponent=  3.5308914320D-02 Coefficients=  1.0000000000D+00
 D 1 1.00
     Exponent=  5.5696000000D-01 Coefficients=  1.0000000000D+00
 D 1 1.00
     Exponent=  1.5619100000D-01 Coefficients=  1.0000000000D+00
 ****
 Centers:       2
 S 8 1.00
     Exponent=  7.5448214551D+05 Coefficients=  4.4300000000D-03
     Exponent=  3.3532539800D+05 Coefficients=  1.9800000000D-03
     Exponent=  1.4903351022D+05 Coefficients=  9.0500000000D-03
     Exponent=  6.6237115655D+04 Coefficients=  4.8700000000D-03
     Exponent=  2.9438718069D+04 Coefficients=  2.0770000000D-02
     Exponent=  1.3083874697D+04 Coefficients=  3.2900000000D-02
     Exponent=  5.8150554210D+03 Coefficients=  7.7010000000D-02
     Exponent=  2.5844690760D+03 Coefficients=  1.5160000000D-01
 S 1 1.00
     Exponent=  1.1486529227D+03 Coefficients=  1.0000000000D+00
 S 1 1.00
     Exponent=  5.1051241008D+02 Coefficients=  1.0000000000D+00
 S 1 1.00
     Exponent=  2.2689440448D+02 Coefficients=  1.0000000000D+00
 S 1 1.00
     Exponent=  1.0084195755D+02 Coefficients=  1.0000000000D+00
 S 1 1.00
     Exponent=  4.4818647798D+01 Coefficients=  1.0000000000D+00
 S 1 1.00
     Exponent=  1.9919399021D+01 Coefficients=  1.0000000000D+00
 S 1 1.00
     Exponent=  8.8530662317D+00 Coefficients=  1.0000000000D+00
 S 1 1.00
     Exponent=  3.9346961030D+00 Coefficients=  1.0000000000D+00
 S 1 1.00
     Exponent=  1.7487538235D+00 Coefficients=  1.0000000000D+00
 S 1 1.00
     Exponent=  7.7722392158D-01 Coefficients=  1.0000000000D+00
 S 1 1.00
     Exponent=  3.4543285403D-01 Coefficients=  1.0000000000D+00
 S 1 1.00
     Exponent=  1.5352571290D-01 Coefficients=  1.0000000000D+00
 S 1 1.00
     Exponent=  6.8233650180D-02 Coefficients=  1.0000000000D+00
 S 1 1.00
     Exponent=  1.3478251887D-02 Coefficients=  1.0000000000D+00
 P 5 1.00
     Exponent=  1.0090658304D+04 Coefficients=  2.7500000000D-03
     Exponent=  4.0362633217D+03 Coefficients=  4.1800000000D-03
     Exponent=  1.6145053287D+03 Coefficients=  2.0890000000D-02
     Exponent=  6.4580213147D+02 Coefficients=  7.1370000000D-02
     Exponent=  2.5832085259D+02 Coefficients=  2.2613000000D-01
 P 1 1.00
     Exponent=  1.0332834104D+02 Coefficients=  1.0000000000D+00
 P 1 1.00
     Exponent=  4.1331336414D+01 Coefficients=  1.0000000000D+00
 P 1 1.00
     Exponent=  1.6532534566D+01 Coefficients=  1.0000000000D+00
 P 1 1.00
     Exponent=  6.6130138263D+00 Coefficients=  1.0000000000D+00
 P 1 1.00
     Exponent=  2.6452055305D+00 Coefficients=  1.0000000000D+00
 P 1 1.00
     Exponent=  1.0580822122D+00 Coefficients=  1.0000000000D+00
 P 1 1.00
     Exponent=  4.2323288488D-01 Coefficients=  1.0000000000D+00
 P 1 1.00
     Exponent=  1.6929315395D-01 Coefficients=  1.0000000000D+00
 P 1 1.00
     Exponent=  6.7717261581D-02 Coefficients=  1.0000000000D+00
 P 1 1.00
     Exponent=  2.7086904632D-02 Coefficients=  1.0000000000D+00
 P 1 1.00
     Exponent=  1.0834761853D-02 Coefficients=  1.0000000000D+00
 D 4 1.00
     Exponent=  5.5430250651D+02 Coefficients=  4.3700000000D-03
     Exponent=  2.0156454782D+02 Coefficients=  2.5110000000D-02
     Exponent=  7.3296199207D+01 Coefficients=  1.3316000000D-01
     Exponent=  2.6653163348D+01 Coefficients=  3.8900000000D-01
 D 1 1.00
     Exponent=  9.6920593993D+00 Coefficients=  1.0000000000D+00
 D 1 1.00
     Exponent=  3.5243852361D+00 Coefficients=  1.0000000000D+00
 D 1 1.00
     Exponent=  1.2815946313D+00 Coefficients=  1.0000000000D+00
 D 1 1.00
     Exponent=  4.6603441139D-01 Coefficients=  1.0000000000D+00
 D 1 1.00
     Exponent=  1.6946705869D-01 Coefficients=  1.0000000000D+00
 F 1 1.00
     Exponent=  1.3140000000D+00 Coefficients=  1.0000000000D+00
 F 1 1.00
     Exponent=  1.9993000000D-01 Coefficients=  1.0000000000D+00
 ****
 Centers:       1
 S 9 1.00
     Exponent=  2.1644816090D+06 Coefficients=  1.2320000000D-02
     Exponent=  1.0822408045D+06 Coefficients=  1.2970000000D-02
     Exponent=  5.4112040224D+05 Coefficients=  2.6370000000D-02
     Exponent=  2.7056020112D+05 Coefficients=  9.0400000000D-03
     Exponent=  1.3528010056D+05 Coefficients=  3.4980000000D-02
     Exponent=  6.7640050280D+04 Coefficients=  1.2220000000D-02
     Exponent=  3.3820025140D+04 Coefficients=  6.0520000000D-02
     Exponent=  1.6910012570D+04 Coefficients=  6.4930000000D-02
     Exponent=  8.4550062850D+03 Coefficients=  1.3819000000D-01
 S 1 1.00
     Exponent=  4.2275031425D+03 Coefficients=  1.0000000000D+00
 S 1 1.00
     Exponent=  2.1137515713D+03 Coefficients=  1.0000000000D+00
 S 1 1.00
     Exponent=  1.0568757856D+03 Coefficients=  1.0000000000D+00
 S 1 1.00
     Exponent=  5.2843789281D+02 Coefficients=  1.0000000000D+00
 S 1 1.00
     Exponent=  2.6421894641D+02 Coefficients=  1.0000000000D+00
 S 1 1.00
     Exponent=  1.3210947320D+02 Coefficients=  1.0000000000D+00
 S 1 1.00
     Exponent=  6.6054736602D+01 Coefficients=  1.0000000000D+00
 S 1 1.00
     Exponent=  3.3027368301D+01 Coefficients=  1.0000000000D+00
 S 1 1.00
     Exponent=  1.6513684150D+01 Coefficients=  1.0000000000D+00
 S 1 1.00
     Exponent=  8.2568420752D+00 Coefficients=  1.0000000000D+00
 S 1 1.00
     Exponent=  4.1284210376D+00 Coefficients=  1.0000000000D+00
 S 1 1.00
     Exponent=  2.0642105188D+00 Coefficients=  1.0000000000D+00
 S 1 1.00
     Exponent=  1.0321052594D+00 Coefficients=  1.0000000000D+00
 S 1 1.00
     Exponent=  5.1605262970D-01 Coefficients=  1.0000000000D+00
 S 1 1.00
     Exponent=  2.5802631485D-01 Coefficients=  1.0000000000D+00
 S 1 1.00
     Exponent=  1.2901315743D-01 Coefficients=  1.0000000000D+00
 S 1 1.00
     Exponent=  6.4506578713D-02 Coefficients=  1.0000000000D+00
 P 7 1.00
     Exponent=  3.2357915258D+04 Coefficients=  5.0200000000D-03
     Exponent=  1.4381295670D+04 Coefficients=  2.0200000000D-03
     Exponent=  6.3916869645D+03 Coefficients=  1.8070000000D-02
     Exponent=  2.8407497620D+03 Coefficients=  3.6620000000D-02
     Exponent=  1.2625554498D+03 Coefficients=  1.1172000000D-01
     Exponent=  5.6113575545D+02 Coefficients=  2.5586000000D-01
     Exponent=  2.4939366909D+02 Coefficients=  4.2608000000D-01
 P 1 1.00
     Exponent=  1.1084163071D+02 Coefficients=  1.0000000000D+00
 P 1 1.00
     Exponent=  4.9262946981D+01 Coefficients=  1.0000000000D+00
 P 1 1.00
     Exponent=  2.1894643103D+01 Coefficients=  1.0000000000D+00
 P 1 1.00
     Exponent=  9.7309524900D+00 Coefficients=  1.0000000000D+00
 P 1 1.00
     Exponent=  4.3248677733D+00 Coefficients=  1.0000000000D+00
 P 1 1.00
     Exponent=  1.9221634548D+00 Coefficients=  1.0000000000D+00
 P 1 1.00
     Exponent=  8.5429486881D-01 Coefficients=  1.0000000000D+00
 P 1 1.00
     Exponent=  3.7968660836D-01 Coefficients=  1.0000000000D+00
 P 1 1.00
     Exponent=  1.6874960372D-01 Coefficients=  1.0000000000D+00
 P 1 1.00
     Exponent=  7.4999823874D-02 Coefficients=  1.0000000000D+00
 P 1 1.00
     Exponent=  3.3333255055D-02 Coefficients=  1.0000000000D+00
 D 5 1.00
     Exponent=  1.9119003508D+03 Coefficients=  4.3300000000D-03
     Exponent=  7.6476014031D+02 Coefficients=  1.7780000000D-02
     Exponent=  3.0590405613D+02 Coefficients=  8.9710000000D-02
     Exponent=  1.2236162245D+02 Coefficients=  3.1123000000D-01
     Exponent=  4.8944648980D+01 Coefficients=  5.3206000000D-01
 D 1 1.00
     Exponent=  1.9577859592D+01 Coefficients=  1.0000000000D+00
 D 1 1.00
     Exponent=  7.8311438368D+00 Coefficients=  1.0000000000D+00
 D 1 1.00
     Exponent=  3.1324575347D+00 Coefficients=  1.0000000000D+00
 D 1 1.00
     Exponent=  1.2529830139D+00 Coefficients=  1.0000000000D+00
 D 1 1.00
     Exponent=  5.0119320556D-01 Coefficients=  1.0000000000D+00
 D 1 1.00
     Exponent=  2.0047728222D-01 Coefficients=  1.0000000000D+00
 D 1 1.00
     Exponent=  8.0190912889D-02 Coefficients=  1.0000000000D+00
 D 1 1.00
     Exponent=  3.2076365156D-02 Coefficients=  1.0000000000D+00
 F 4 1.00
     Exponent=  8.2289680979D+01 Coefficients=  6.1870000000D-02
     Exponent=  2.9923520356D+01 Coefficients=  2.4823000000D-01
     Exponent=  1.0881280130D+01 Coefficients=  4.9956000000D-01
     Exponent=  3.9568291380D+00 Coefficients=  4.0380000000D-01
 F 1 1.00
     Exponent=  1.4388469593D+00 Coefficients=  1.0000000000D+00
 F 1 1.00
     Exponent=  5.2321707610D-01 Coefficients=  1.0000000000D+00
 G 1 1.00
     Exponent=  2.6700000000D+00 Coefficients=  1.0000000000D+00
 G 1 1.00
     Exponent=  9.0960000000D-01 Coefficients=  1.0000000000D+00
 ****
 Ernie: Thresh=  0.10000D-02 Tol=  0.10000D-05 Strict=F.
 There are  2021 symmetry adapted cartesian basis functions of A   symmetry.
 There are  1883 symmetry adapted basis functions of A   symmetry.
  1883 basis functions,  3002 primitive gaussians,  2021 cartesian basis functions
   260 alpha electrons      260 beta electrons
       nuclear repulsion energy     14116.2702613703 Hartrees.
 IExCor= 1009 DFT=T Ex=PBE Corr=PBE ExCW=0 ScaHFX=  0.000000
 ScaDFX=  1.000000  1.000000  1.000000  1.000000 ScalE2=  1.000000  1.000000
 IRadAn=      0 IRanWt=     -1 IRanGd=            0 ICorTp=0 IEmpDi=  4
 NAtoms=   92 NActive=   92 NUniq=   92 SFac= 1.00D+00 NAtFMM=   60 NAOKFM=T Big=T
 Integral buffers will be    131072 words long.
 Raffenetti 2 integral format.
 Two-electron integral symmetry is turned on.
 ------------------------------------------------------------------------------
 Polarizable Continuum Model (PCM)
 =================================
 Model                : PCM (using non-symmetric T matrix).
 Atomic radii         : UFF (Universal Force Field).
 Polarization charges : Total charges.
 Charge compensation  : None.
 Solution method      : On-the-fly selection.
 Cavity type          : Scaled VdW (van der Waals Surface) (Alpha=1.100).
 Cavity algorithm     : GePol (No added spheres)
                        Default sphere list used, NSphG=   92.
                        Lebedev-Laikov grids with approx.  5.0 points / Ang**2.
                        Smoothing algorithm: Karplus/York (Gamma=1.0000).
                        Polarization charges: spherical gaussians, with
                                              point-specific exponents (IZeta= 3).
                        Self-potential: point-specific (ISelfS= 7).
                        Self-field    : sphere-specific E.n sum rule (ISelfD= 2).
 Solvent              : Chloroform, Eps=   4.711300 Eps(inf)=   2.090627
 ------------------------------------------------------------------------------
 GePol: Number of generator spheres                  =      92
 GePol: Total number of spheres                      =      92
 GePol: Number of exposed spheres                    =      92 (100.00%)
 GePol: Number of points                             =    6635
 GePol: Average weight of points                     =       0.13
 GePol: Minimum weight of points                     =   0.60D-11
 GePol: Maximum weight of points                     =    0.21838
 GePol: Number of points with low weight             =     472
 GePol: Fraction of low-weight points (<1% of avg)   =       7.11%
 GePol: Cavity surface area                          =    883.820 Ang**2
 GePol: Cavity volume                                =   1068.733 Ang**3
 Leave Link  301 at Wed Sep  5 20:57:47 2018, MaxMem=  2013265920 cpu:         2.5
 (Enter /scr/programs/g09/l302.exe)
 NPDir=0 NMtPBC=     1 NCelOv=     1 NCel=       1 NClECP=     1 NCelD=      1
         NCelK=      1 NCelE2=     1 NClLst=     1 CellRange=     0.0.
 One-electron integrals computed using PRISM.
 NBasis=  1883 RedAO= T EigKep=  1.23D-06  NBF=  1883
 NBsUse=  1883 1.00D-06 EigRej= -1.00D+00 NBFU=  1883
 Precomputing XC quadrature grid using
 IXCGrd= 4 IRadAn=           0 IRanWt=          -1 IRanGd=           0 AccXCQ= 0.00D+00.
 Defaulting to unpruned grid for atomic number  78.
 Generated NRdTot=       0 NPtTot=           0 NUsed=           0 NTot=          32
 NSgBfM=  1641  1642  1642  1643  1658 MxSgAt=    92 MxSgA2=    92.
 Leave Link  302 at Wed Sep  5 20:58:09 2018, MaxMem=  2013265920 cpu:       174.6
 (Enter /scr/programs/g09/l308.exe)
 Leave Link  308 at Wed Sep  5 20:58:11 2018, MaxMem=  2013265920 cpu:        13.4
 (Enter /scr/programs/g09/l303.exe)
 DipDrv:  MaxL=1.
 Leave Link  303 at Wed Sep  5 20:58:14 2018, MaxMem=  2013265920 cpu:        10.4
 (Enter /scr/programs/g09/l401.exe)
 ExpMin= 1.08D-02 ExpMax= 2.16D+06 ExpMxC= 2.16D+06 IAcc=4 IRadAn=    199590 AccDes= 0.00D+00
 Harris functional with IExCor= 1009 and IRadAn=  199590 diagonalized for initial guess.
 HarFok:  IExCor= 1009 AccDes= 0.00D+00 IRadAn=    199590 IDoV= 1 UseB2=F ITyADJ=14
 ICtDFT=  3500011 ScaDFX=  1.000000  1.000000  1.000000  1.000000
 FoFCou: FMM=F IPFlag=           0 FMFlag=      100000 FMFlg1=        2001
         NFxFlg=           0 DoJE=T BraDBF=F KetDBF=T FulRan=T
         wScrn=  0.000000 ICntrl=     500 IOpCl=  0 I1Cent=   200000004 NGrid=           0
         NMat0=    1 NMatS0=      1 NMatT0=    0 NMatD0=    1 NMtDS0=    0 NMtDT0=    0
 Petite list used in FoFCou.
 Harris En= -27252.1093550582    
 JPrj=0 DoOrth=F DoCkMO=F.
 Leave Link  401 at Wed Sep  5 21:03:50 2018, MaxMem=  2013265920 cpu:      2675.4
 (Enter /scr/programs/g09/l502.exe)
 Closed shell SCF:
 Using DIIS extrapolation, IDIIS=  1040.
 Integral symmetry usage will be decided dynamically.
 IVT=    13291063 IEndB=    13291063 NGot=  2013265920 MDV=  2005063320
 LenX=  2005063320 LenY=  2000976858
 Requested convergence on RMS density matrix=1.00D-04 within1000 cycles.
 Requested convergence on MAX density matrix=1.00D-02.
 Requested convergence on             energy=1.00D-02.
 No special actions if energy rises.
 Fock matrices will be formed incrementally for  20 cycles.

 Cycle   1  Pass 1  IDiag  1:
 FoFJK:  IHMeth= 1 ICntrl=     500 DoSepK=F KAlg= 0 I1Cent=   0 FoldK=F
 IRaf= 610000000 NMat=   1 IRICut=       1 DoRegI=T DoRafI=F ISym2E= 0.
 FoFCou: FMM=T IPFlag=           0 FMFlag=      100000 FMFlg1=        2001
         NFxFlg=           0 DoJE=T BraDBF=F KetDBF=F FulRan=T
         wScrn=  0.000000 ICntrl=     500 IOpCl=  0 I1Cent=           0 NGrid=           0
         NMat0=    1 NMatS0=      1 NMatT0=    0 NMatD0=    1 NMtDS0=    0 NMtDT0=    0
 Symmetry not used in FoFCou.
 FMM levels:  10  Number of levels for PrismC:   9
 Defaulting to unpruned grid for atomic number  78.
 Defaulting to unpruned grid for atomic number  78.
 Defaulting to unpruned grid for atomic number  78.
 Defaulting to unpruned grid for atomic number  78.
 Defaulting to unpruned grid for atomic number  78.
 Defaulting to unpruned grid for atomic number  78.
 Defaulting to unpruned grid for atomic number  78.
 Defaulting to unpruned grid for atomic number  78.
 Inv3:  Mode=1 IEnd=   132069675.
 Iteration    1 A*A^-1 deviation from unit magnitude is 1.38D-14 for   4754.
 Iteration    1 A*A^-1 deviation from orthogonality  is 8.44D-15 for   4553   2211.
 Iteration    1 A^-1*A deviation from unit magnitude is 1.44D-14 for   4656.
 Iteration    1 A^-1*A deviation from orthogonality  is 1.59D-09 for   2958   2952.
 Iteration    2 A*A^-1 deviation from unit magnitude is 1.10D-14 for    115.
 Iteration    2 A*A^-1 deviation from orthogonality  is 7.99D-15 for   4584    737.
 Iteration    2 A^-1*A deviation from unit magnitude is 1.89D-15 for   5862.
 Iteration    2 A^-1*A deviation from orthogonality  is 1.27D-15 for   4040    280.
 E= -27231.6376883811    
 DIIS: error= 2.06D-01 at cycle   1 NSaved=   1.
 NSaved= 1 IEnMin= 1 EnMin= -27231.6376883811     IErMin= 1 ErrMin= 2.06D-01
 ErrMax= 2.06D-01  0.00D+00 EMaxC= 1.00D-01 BMatC= 3.35D+02 BMatP= 3.35D+02
 IDIUse=3 WtCom= 0.00D+00 WtEn= 1.00D+00
 Coeff-Com:  0.100D+01
 Coeff-En:   0.100D+01
 Coeff:      0.100D+01
 Gap=     0.791 Goal=   None    Shift=    0.000
 GapD=    0.791 DampG=2.000 DampE=0.125 DampFc=0.2500 IDamp=-1.
 Damping current iteration by 2.50D-01
 RMSDP=3.10D-02 MaxDP=8.95D+00              OVMax= 7.36D-01

 Cycle   2  Pass 1  IDiag  1:
 RMSU=  6.44D-03    CP:  1.21D+00
 E= -27233.1318974989     Delta-E=       -1.494209117860 Rises=F Damp=T
 DIIS: error= 1.52D-01 at cycle   2 NSaved=   2.
 NSaved= 2 IEnMin= 2 EnMin= -27233.1318974989     IErMin= 2 ErrMin= 1.52D-01
 ErrMax= 1.52D-01  0.00D+00 EMaxC= 1.00D-01 BMatC= 1.61D+02 BMatP= 3.35D+02
 IDIUse=3 WtCom= 0.00D+00 WtEn= 1.00D+00
 Coeff-Com: -0.192D+01 0.292D+01
 Coeff-En:   0.228D+00 0.772D+00
 Coeff:      0.228D+00 0.772D+00
 Gap=     0.031 Goal=   None    Shift=    0.000
 RMSDP=6.29D-03 MaxDP=2.02D+00 DE=-1.49D+00 OVMax= 8.91D-01

 Cycle   3  Pass 1  IDiag  1:
 RMSU=  6.03D-03    CP:  1.17D+00  7.50D-01
 E= -27234.9164580675     Delta-E=       -1.784560568522 Rises=F Damp=F
 DIIS: error= 5.52D-02 at cycle   3 NSaved=   3.
 NSaved= 3 IEnMin= 3 EnMin= -27234.9164580675     IErMin= 3 ErrMin= 5.52D-02
 ErrMax= 5.52D-02  0.00D+00 EMaxC= 1.00D-01 BMatC= 1.62D+01 BMatP= 1.61D+02
 IDIUse=3 WtCom= 4.48D-01 WtEn= 5.52D-01
 EnCoef did   100 forward-backward iterations
 Coeff-Com:  0.798D+00-0.910D+00 0.111D+01
 Coeff-En:   0.323D+00 0.625D-02 0.671D+00
 Coeff:      0.536D+00-0.404D+00 0.868D+00
 Gap=     0.049 Goal=   None    Shift=    0.000
 RMSDP=1.22D-02 MaxDP=2.51D+00 DE=-1.78D+00 OVMax= 6.85D-01

 Cycle   4  Pass 1  IDiag  1:
 RMSU=  9.90D-03    CP:  1.30D+00  9.95D-01 -7.54D-02
 E= -27224.1370587578     Delta-E=       10.779399309635 Rises=F Damp=F
 DIIS: error= 4.03D-02 at cycle   4 NSaved=   4.
 NSaved= 4 IEnMin= 3 EnMin= -27234.9164580675     IErMin= 4 ErrMin= 4.03D-02
 ErrMax= 4.03D-02  0.00D+00 EMaxC= 1.00D-01 BMatC= 1.17D+01 BMatP= 1.62D+01
 IDIUse=3 WtCom= 5.97D-01 WtEn= 4.03D-01
 EnCoef did     5 forward-backward iterations
 Coeff-Com:  0.568D+00-0.690D+00 0.713D+00 0.409D+00
 Coeff-En:   0.274D+00 0.000D+00 0.641D+00 0.851D-01
 Coeff:      0.450D+00-0.412D+00 0.684D+00 0.278D+00
 Gap=    -0.020 Goal=   None    Shift=    0.000
 RMSDP=1.24D-02 MaxDP=2.44D+00 DE= 1.08D+01 OVMax= 7.65D-01

 Cycle   5  Pass 1  IDiag  1:
 RMSU=  2.12D-03    CP:  1.05D+00  3.93D-01  4.80D-01  1.69D-02
 E= -27237.1676406818     Delta-E=      -13.030581923973 Rises=F Damp=F
 DIIS: error= 1.03D-02 at cycle   5 NSaved=   5.
 NSaved= 5 IEnMin= 5 EnMin= -27237.1676406818     IErMin= 5 ErrMin= 1.03D-02
 ErrMax= 1.03D-02  0.00D+00 EMaxC= 1.00D-01 BMatC= 7.67D-01 BMatP= 1.17D+01
 IDIUse=3 WtCom= 8.97D-01 WtEn= 1.03D-01
 EnCoef did     2 forward-backward iterations
 Coeff-Com: -0.185D-01 0.472D-01 0.164D+00 0.120D+00 0.687D+00
 Coeff-En:   0.000D+00 0.000D+00 0.301D-01 0.247D-01 0.945D+00
 Coeff:     -0.166D-01 0.423D-01 0.150D+00 0.111D+00 0.713D+00
 Gap=     0.147 Goal=   None    Shift=    0.000
 RMSDP=3.51D-03 MaxDP=7.70D-01 DE=-1.30D+01 OVMax= 2.55D-01

 Cycle   6  Pass 1  IDiag  1:
 RMSU=  1.81D-03    CP:  1.10D+00  4.67D-01  5.47D-01  1.34D-01 -1.85D-01
 E= -27237.1522216591     Delta-E=        0.015419022646 Rises=F Damp=F
 DIIS: error= 7.66D-03 at cycle   6 NSaved=   6.
 NSaved= 6 IEnMin= 5 EnMin= -27237.1676406818     IErMin= 6 ErrMin= 7.66D-03
 ErrMax= 7.66D-03  0.00D+00 EMaxC= 1.00D-01 BMatC= 5.54D-01 BMatP= 7.67D-01
 IDIUse=3 WtCom= 9.23D-01 WtEn= 7.66D-02
 Coeff-Com: -0.963D-01 0.137D+00 0.225D-01 0.274D-01 0.500D+00 0.410D+00
 Coeff-En:   0.000D+00 0.000D+00 0.000D+00 0.000D+00 0.506D+00 0.494D+00
 Coeff:     -0.889D-01 0.127D+00 0.208D-01 0.253D-01 0.500D+00 0.416D+00
 Gap=     0.151 Goal=   None    Shift=    0.000
 RMSDP=1.78D-03 MaxDP=2.12D-01 DE= 1.54D-02 OVMax= 2.03D-01

 Cycle   7  Pass 1  IDiag  1:
 RMSU=  1.17D-03    CP:  1.09D+00  4.83D-01  5.66D-01  1.05D-01  2.58D-01
                    CP:  5.02D-01
 E= -27237.6604814649     Delta-E=       -0.508259805763 Rises=F Damp=F
 DIIS: error= 2.39D-03 at cycle   7 NSaved=   7.
 NSaved= 7 IEnMin= 7 EnMin= -27237.6604814649     IErMin= 7 ErrMin= 2.39D-03
 ErrMax= 2.39D-03  0.00D+00 EMaxC= 1.00D-01 BMatC= 7.96D-02 BMatP= 5.54D-01
 IDIUse=3 WtCom= 9.76D-01 WtEn= 2.39D-02
 Coeff-Com: -0.612D-01 0.851D-01-0.423D-02 0.840D-02 0.269D+00 0.293D+00
 Coeff-Com:  0.410D+00
 Coeff-En:   0.000D+00 0.000D+00 0.000D+00 0.000D+00 0.000D+00 0.137D+00
 Coeff-En:   0.863D+00
 Coeff:     -0.598D-01 0.831D-01-0.413D-02 0.820D-02 0.263D+00 0.289D+00
 Coeff:      0.421D+00
 Gap=     0.099 Goal=   None    Shift=    0.000
 RMSDP=8.76D-04 MaxDP=1.30D-01 DE=-5.08D-01 OVMax= 7.72D-02

 Cycle   8  Pass 1  IDiag  1:
 RMSU=  5.47D-04    CP:  1.09D+00  4.74D-01  5.49D-01  1.13D-01  3.81D-01
                    CP:  5.15D-01  4.82D-01
 E= -27237.7310219704     Delta-E=       -0.070540505447 Rises=F Damp=F
 DIIS: error= 1.01D-03 at cycle   8 NSaved=   8.
 NSaved= 8 IEnMin= 8 EnMin= -27237.7310219704     IErMin= 8 ErrMin= 1.01D-03
 ErrMax= 1.01D-03  0.00D+00 EMaxC= 1.00D-01 BMatC= 1.46D-02 BMatP= 7.96D-02
 IDIUse=3 WtCom= 9.90D-01 WtEn= 1.01D-02
 Coeff-Com: -0.158D-01 0.215D-01-0.510D-02 0.247D-02 0.807D-01 0.109D+00
 Coeff-Com:  0.306D+00 0.501D+00
 Coeff-En:   0.000D+00 0.000D+00 0.000D+00 0.000D+00 0.000D+00 0.000D+00
 Coeff-En:   0.207D+00 0.793D+00
 Coeff:     -0.157D-01 0.212D-01-0.505D-02 0.244D-02 0.798D-01 0.108D+00
 Coeff:      0.305D+00 0.504D+00
 Gap=     0.092 Goal=   None    Shift=    0.000
 RMSDP=4.67D-04 MaxDP=5.01D-02 DE=-7.05D-02 OVMax= 3.22D-02

 Cycle   9  Pass 1  IDiag  1:
 RMSU=  4.11D-04    CP:  1.10D+00  4.81D-01  5.58D-01  1.16D-01  3.70D-01
                    CP:  5.64D-01  5.88D-01  8.93D-01
 E= -27237.7440003534     Delta-E=       -0.012978383013 Rises=F Damp=F
 DIIS: error= 5.31D-04 at cycle   9 NSaved=   9.
 NSaved= 9 IEnMin= 9 EnMin= -27237.7440003534     IErMin= 9 ErrMin= 5.31D-04
 ErrMax= 5.31D-04  0.00D+00 EMaxC= 1.00D-01 BMatC= 3.13D-03 BMatP= 1.46D-02
 IDIUse=3 WtCom= 9.95D-01 WtEn= 5.31D-03
 Coeff-Com:  0.221D-03-0.503D-03-0.122D-02 0.108D-02 0.205D-01 0.351D-01
 Coeff-Com:  0.159D+00 0.366D+00 0.420D+00
 Coeff-En:   0.000D+00 0.000D+00 0.000D+00 0.000D+00 0.000D+00 0.000D+00
 Coeff-En:   0.000D+00 0.192D+00 0.808D+00
 Coeff:      0.220D-03-0.500D-03-0.122D-02 0.107D-02 0.204D-01 0.349D-01
 Coeff:      0.159D+00 0.365D+00 0.422D+00
 Gap=     0.093 Goal=   None    Shift=    0.000
 RMSDP=4.28D-04 MaxDP=5.04D-02 DE=-1.30D-02 OVMax= 1.39D-02

 Cycle  10  Pass 1  IDiag  1:
 RMSU=  2.74D-04    CP:  1.10D+00  4.85D-01  5.66D-01  1.18D-01  3.64D-01
                    CP:  6.02D-01  6.73D-01  1.21D+00  1.54D+00
 E= -27237.7471151519     Delta-E=       -0.003114798492 Rises=F Damp=F
 DIIS: error= 1.58D-04 at cycle  10 NSaved=  10.
 NSaved=10 IEnMin=10 EnMin= -27237.7471151519     IErMin=10 ErrMin= 1.58D-04
 ErrMax= 1.58D-04  0.00D+00 EMaxC= 1.00D-01 BMatC= 3.42D-04 BMatP= 3.13D-03
 IDIUse=3 WtCom= 9.98D-01 WtEn= 1.58D-03
 Coeff-Com:  0.903D-03-0.127D-02 0.573D-04-0.188D-04 0.436D-02 0.108D-01
 Coeff-Com:  0.670D-01 0.174D+00 0.272D+00 0.473D+00
 Coeff-En:   0.000D+00 0.000D+00 0.000D+00 0.000D+00 0.000D+00 0.000D+00
 Coeff-En:   0.000D+00 0.000D+00 0.826D-01 0.917D+00
 Coeff:      0.901D-03-0.127D-02 0.572D-04-0.188D-04 0.435D-02 0.108D-01
 Coeff:      0.669D-01 0.173D+00 0.272D+00 0.473D+00
 Gap=     0.092 Goal=   None    Shift=    0.000
 RMSDP=7.19D-04 MaxDP=6.81D-02 DE=-3.11D-03 OVMax= 8.78D-03

 Cycle  11  Pass 1  IDiag  1:
 RMSU=  1.90D-04    CP:  1.11D+00  4.89D-01  5.80D-01  1.20D-01  3.82D-01
                    CP:  6.53D-01  7.34D-01  1.67D+00  2.78D+00  2.16D+00
 E= -27237.7473932675     Delta-E=       -0.000278115665 Rises=F Damp=F
 DIIS: error= 8.61D-05 at cycle  11 NSaved=  11.
 NSaved=11 IEnMin=11 EnMin= -27237.7473932675     IErMin=11 ErrMin= 8.61D-05
 ErrMax= 8.61D-05  0.00D+00 EMaxC= 1.00D-01 BMatC= 6.48D-05 BMatP= 3.42D-04
 IDIUse=1 WtCom= 1.00D+00 WtEn= 0.00D+00
 Coeff-Com:  0.461D-03-0.630D-03 0.190D-03-0.225D-03 0.189D-02 0.522D-02
 Coeff-Com:  0.342D-01 0.907D-01 0.154D+00 0.341D+00 0.373D+00
 Coeff:      0.461D-03-0.630D-03 0.190D-03-0.225D-03 0.189D-02 0.522D-02
 Coeff:      0.342D-01 0.907D-01 0.154D+00 0.341D+00 0.373D+00
 Gap=     0.092 Goal=   None    Shift=    0.000
 RMSDP=1.10D-03 MaxDP=1.02D-01 DE=-2.78D-04 OVMax= 2.65D-03

 Cycle  12  Pass 1  IDiag  1:
 RMSU=  7.27D-04    CP:  1.13D+00  5.01D-01  6.06D-01  1.25D-01  3.96D-01
                    CP:  7.22D-01  8.22D-01  2.33D+00  3.00D+00  3.00D+00
                    CP:  2.34D+00
 E= -27237.7474595505     Delta-E=       -0.000066282926 Rises=F Damp=F
 DIIS: error= 1.25D-04 at cycle  12 NSaved=  12.
 NSaved=12 IEnMin=12 EnMin= -27237.7474595505     IErMin=11 ErrMin= 8.61D-05
 ErrMax= 1.25D-04  0.00D+00 EMaxC= 1.00D-01 BMatC= 3.01D-05 BMatP= 6.48D-05
 IDIUse=1 WtCom= 1.00D+00 WtEn= 0.00D+00
 Coeff-Com:  0.463D-03-0.634D-03 0.191D-03-0.226D-03 0.190D-02 0.524D-02
 Coeff-Com:  0.344D-01 0.911D-01 0.155D+00 0.343D+00 0.375D+00-0.481D-02
 Coeff:      0.463D-03-0.634D-03 0.191D-03-0.226D-03 0.190D-02 0.524D-02
 Coeff:      0.344D-01 0.911D-01 0.155D+00 0.343D+00 0.375D+00-0.481D-02
 Gap=     0.092 Goal=   None    Shift=    0.000
 RMSDP=1.99D-05 MaxDP=1.85D-03 DE=-6.63D-05 OVMax= 9.94D-06

 Error on total polarization charges =  0.02389
 SCF Done:  E(RPBE-PBE) =  -27237.7474596     A.U. after   12 cycles
            NFock= 12  Conv=0.20D-04     -V/T= 2.0152
 KE= 2.682998506509D+04 PE=-9.265413214226D+04 EE= 2.447012935624D+04
 Leave Link  502 at Wed Sep  5 22:46:11 2018, MaxMem=  2013265920 cpu:     49028.0
 (Enter /scr/programs/g09/l801.exe)
 Range of M.O.s used for correlation:     1  1883
 NBasis=  1883 NAE=   260 NBE=   260 NFC=     0 NFV=     0
 NROrb=   1883 NOA=   260 NOB=   260 NVA=  1623 NVB=  1623

 **** Warning!!: The largest alpha MO coefficient is  0.58203749D+02


 **** Warning!!: The smallest alpha delta epsilon is  0.92384903D-01

 Leave Link  801 at Wed Sep  5 22:46:11 2018, MaxMem=  2013265920 cpu:         1.3
 (Enter /scr/programs/g09/l1002.exe)
 Minotr:  Closed shell wavefunction.
 NEqPCM:  Using equilibrium solvation (IEInf=0, Eps=   4.7113, EpsInf=   2.0906)
          Direct CPHF calculation.
          Differentiating once with respect to magnetic field using GIAOs.
          Electric field/nuclear overlap derivatives assumed to be zero.
          Requested convergence is 1.0D-08 RMS, and 1.0D-07 maximum.
          Secondary convergence is 1.0D-12 RMS, and 1.0D-12 maximum.
          NewPWx=T KeepS1=F KeepF1=F KeepIn=T MapXYZ=F SortEE=F KeepMc=T.
          MDV=    2013263297 using IRadAn=       2.
 Defaulting to unpruned grid for atomic number  78.
 Generate precomputed XC quadrature information.
          Solving linear equations simultaneously, MaxMat=      72.
 FoFJK:  IHMeth= 1 ICntrl=    6127 DoSepK=F KAlg= 0 I1Cent=   0 FoldK=F
 IRaf=         1 NMat=   1 IRICut=       1 DoRegI=T DoRafI=F ISym2E= 0.
 Defaulting to unpruned grid for atomic number  78.
 Defaulting to unpruned grid for atomic number  78.
 Defaulting to unpruned grid for atomic number  78.
 Defaulting to unpruned grid for atomic number  78.
 Defaulting to unpruned grid for atomic number  78.
 Defaulting to unpruned grid for atomic number  78.
 Defaulting to unpruned grid for atomic number  78.
 Defaulting to unpruned grid for atomic number  78.
          There are     3 degrees of freedom in the 1st order CPHF.  IDoFFX=0 NUNeed=     3.
      3 vectors produced by pass  0 Test12= 1.41D-11 3.33D-08 XBig12= 1.77D+03 3.18D+00.
 AX will form     3 AO Fock derivatives at one time.
 InvSVY:  IOpt=1 It=  1 EMax= 0.00D+00
 Solved reduced A of dimension     3 with     3 vectors.
 Calculating GIAO nuclear magnetic shielding tensors.
 SCF GIAO Magnetic shielding tensor (ppm):
      1  Pt   Isotropic =  2992.0495   Anisotropy =  1625.1239
   XX=  3477.6928   YX=  -252.3160   ZX=   285.4839
   XY=  -154.4050   YY=  4006.2186   ZY=   135.7386
   XZ=   246.2682   YZ=    70.3210   ZZ=  1492.2370
   Eigenvalues:  1450.7260  3449.9569  4075.4654
      2  Sn   Isotropic =  2196.0343   Anisotropy =   633.7171
   XX=  2435.7713   YX=   262.2219   ZX=   -28.9226
   XY=   284.2960   YY=  2208.8975   ZY=     9.1121
   XZ=   -39.0509   YZ=    40.7755   ZZ=  1943.4340
   Eigenvalues:  1927.3056  2042.2849  2618.5124
      3  Cl   Isotropic =   758.4360   Anisotropy =   296.2902
   XX=   882.4905   YX=  -135.1534   ZX=   -26.9453
   XY=  -132.7391   YY=   693.4382   ZY=    24.8953
   XZ=    -5.7359   YZ=    51.7059   ZZ=   699.3793
   Eigenvalues:   615.3569   703.9883   955.9628
      4  Cl   Isotropic =   763.9659   Anisotropy =   323.8252
   XX=   673.3876   YX=    14.9325   ZX=   -73.4835
   XY=    19.3679   YY=   766.9972   ZY=  -154.1606
   XZ=   -64.5868   YZ=  -147.2946   ZZ=   851.5128
   Eigenvalues:   628.3914   683.6569   979.8493
      5  Cl   Isotropic =   781.6602   Anisotropy =   322.5917
   XX=   710.7344   YX=    34.2709   ZX=    82.3977
   XY=    41.2227   YY=   783.7600   ZY=   157.7282
   XZ=    73.5191   YZ=   144.1463   ZZ=   850.4864
   Eigenvalues:   652.1779   696.0814   996.7214
      6  Cl   Isotropic =   918.7855   Anisotropy =   601.3983
   XX=   718.2258   YX=   -91.0877   ZX=    27.3184
   XY=   -62.1489   YY=   719.1880   ZY=    37.2300
   XZ=   -62.1221   YZ=   -16.3281   ZZ=  1318.9426
   Eigenvalues:   642.0503   794.5884  1319.7177
      7  P    Isotropic =   237.9966   Anisotropy =   115.6492
   XX=   215.2486   YX=   -55.9643   ZX=   -16.6993
   XY=   -45.6305   YY=   288.5696   ZY=     7.1717
   XZ=   -45.2486   YZ=   -22.5471   ZZ=   210.1716
   Eigenvalues:   166.8083   232.0854   315.0961
      8  P    Isotropic =   250.9147   Anisotropy =   102.0586
   XX=   305.1490   YX=    23.2769   ZX=    12.3555
   XY=    39.3796   YY=   243.2440   ZY=   -10.9514
   XZ=    23.9870   YZ=   -30.6117   ZZ=   204.3512
   Eigenvalues:   187.6425   246.1479   318.9538
      9  C    Isotropic =    39.3204   Anisotropy =   159.3960
   XX=    58.6686   YX=   -82.8222   ZX=   -18.2806
   XY=   -87.5000   YY=    43.2323   ZY=    34.6852
   XZ=   -18.0686   YZ=    27.2182   ZZ=    16.0603
   Eigenvalues:   -36.9859     9.3627   145.5844
     10  C    Isotropic =    40.0957   Anisotropy =   174.3780
   XX=   106.7062   YX=   -51.5210   ZX=   -15.8365
   XY=   -69.0099   YY=    56.1487   ZY=    44.8705
   XZ=   -28.4550   YZ=    44.3384   ZZ=   -42.5678
   Eigenvalues:   -59.7433    23.6827   156.3477
     11  C    Isotropic =    42.7759   Anisotropy =   185.5224
   XX=    79.2616   YX=   -74.3734   ZX=   -65.9094
   XY=   -82.1774   YY=    67.8397   ZY=     5.9947
   XZ=   -65.9793   YZ=    -0.4961   ZZ=   -18.7736
   Eigenvalues:   -62.4731    24.3433   166.4575
     12  C    Isotropic =    44.6934   Anisotropy =   159.2154
   XX=    69.4544   YX=   -74.5712   ZX=   -54.9622
   XY=   -66.0202   YY=    75.6076   ZY=    -6.6942
   XZ=   -58.7822   YZ=    -7.3804   ZZ=   -10.9818
   Eigenvalues:   -54.3118    37.5550   150.8370
     13  H    Isotropic =    26.2322   Anisotropy =     8.1840
   XX=    30.1317   YX=     0.8143   ZX=     1.9632
   XY=     1.6285   YY=    27.8736   ZY=     2.1820
   XZ=     2.7592   YZ=     3.3160   ZZ=    20.6912
   Eigenvalues:    19.4299    27.5785    31.6882
     14  C    Isotropic =    50.5544   Anisotropy =   158.6805
   XX=   105.0847   YX=   -55.0784   ZX=   -14.4355
   XY=   -51.7039   YY=    70.7342   ZY=    52.7231
   XZ=   -18.7315   YZ=    57.6792   ZZ=   -24.1557
   Eigenvalues:   -49.8872    45.2089   156.3413
     15  H    Isotropic =    24.7981   Anisotropy =    12.4702
   XX=    25.6768   YX=     3.4616   ZX=    -0.7330
   XY=     5.2175   YY=    27.2160   ZY=    -4.8968
   XZ=    -3.6991   YZ=    -4.6518   ZZ=    21.5014
   Eigenvalues:    18.7852    22.4975    33.1115
     16  C    Isotropic =    31.0466   Anisotropy =   191.6402
   XX=    59.2636   YX=  -107.5985   ZX=   -24.2450
   XY=   -98.7918   YY=    27.6107   ZY=    31.8896
   XZ=   -28.0763   YZ=    32.6514   ZZ=     6.2654
   Eigenvalues:   -61.8864    -3.7807   158.8067
     17  H    Isotropic =    24.5283   Anisotropy =     8.5039
   XX=    21.4512   YX=     2.1985   ZX=    -1.4729
   XY=     3.0380   YY=    28.2678   ZY=    -2.5248
   XZ=    -0.8079   YZ=    -2.1162   ZZ=    23.8658
   Eigenvalues:    20.5187    22.8686    30.1975
     18  H    Isotropic =    24.7694   Anisotropy =     7.0701
   XX=    24.8692   YX=     2.8894   ZX=     1.9155
   XY=     2.9348   YY=    27.5611   ZY=    -0.1288
   XZ=     0.3831   YZ=     0.2420   ZZ=    21.8779
   Eigenvalues:    21.3061    23.5193    29.4828
     19  C    Isotropic =    41.7182   Anisotropy =   160.5929
   XX=   114.4894   YX=    41.1908   ZX=    58.0005
   XY=    22.7294   YY=    28.6734   ZY=    -3.0412
   XZ=    72.0978   YZ=     6.9897   ZZ=   -18.0082
   Eigenvalues:   -46.1139    22.4884   148.7802
     20  C    Isotropic =    36.2841   Anisotropy =   172.3210
   XX=   127.9031   YX=     0.4809   ZX=    49.7335
   XY=     4.2341   YY=   -27.1950   ZY=    47.4759
   XZ=    58.1794   YZ=    54.4120   ZZ=     8.1442
   Eigenvalues:   -68.2913    25.9787   151.1647
     21  C    Isotropic =    36.7523   Anisotropy =   172.2779
   XX=   123.5905   YX=    47.7151   ZX=    38.9784
   XY=    42.4535   YY=   -54.8989   ZY=     1.3802
   XZ=    50.8314   YZ=    -3.1204   ZZ=    41.5653
   Eigenvalues:   -66.9183    25.5710   151.6042
     22  C    Isotropic =    45.4016   Anisotropy =   156.2147
   XX=   117.2081   YX=    41.8504   ZX=    50.9680
   XY=    39.0809   YY=   -43.3686   ZY=    -7.1616
   XZ=    42.4910   YZ=    -4.0397   ZZ=    62.3652
   Eigenvalues:   -55.4570    42.1170   149.5447
     23  H    Isotropic =    24.3922   Anisotropy =    12.3097
   XX=    24.7582   YX=    -1.0848   ZX=    -3.2492
   XY=    -5.8970   YY=    24.7793   ZY=     5.9713
   XZ=    -3.6881   YZ=     4.5808   ZZ=    23.6390
   Eigenvalues:    18.8852    21.6927    32.5986
     24  C    Isotropic =    50.6777   Anisotropy =   164.1190
   XX=   129.0754   YX=     8.8077   ZX=    61.5027
   XY=     5.7152   YY=    -0.3848   ZY=    58.6813
   XZ=    53.4077   YZ=    53.1640   ZZ=    23.3427
   Eigenvalues:   -51.4966    43.4395   160.0904
     25  H    Isotropic =    23.0321   Anisotropy =    14.0665
   XX=    20.6071   YX=     1.7510   ZX=    -3.8419
   XY=     0.3585   YY=    17.9986   ZY=     3.1686
   XZ=    -4.2647   YZ=     3.0506   ZZ=    30.4905
   Eigenvalues:    16.1803    20.5062    32.4097
     26  C    Isotropic =    38.0873   Anisotropy =   208.1016
   XX=   120.0495   YX=    37.1397   ZX=   100.3738
   XY=    36.5459   YY=    -2.2136   ZY=     1.4973
   XZ=    86.1022   YZ=     7.5666   ZZ=    -3.5741
   Eigenvalues:   -57.2540    -5.3058   176.8217
     27  H    Isotropic =    23.5781   Anisotropy =     7.9948
   XX=    21.3766   YX=    -0.0697   ZX=    -4.3140
   XY=    -1.8444   YY=    22.6397   ZY=     0.5769
   XZ=    -3.7485   YZ=    -0.7127   ZZ=    26.7180
   Eigenvalues:    19.0002    22.8261    28.9079
     28  H    Isotropic =    23.8524   Anisotropy =    10.4135
   XX=    22.0527   YX=    -2.3398   ZX=    -3.1581
   XY=    -2.4847   YY=    23.1266   ZY=     3.6063
   XZ=    -3.0428   YZ=     4.3220   ZZ=    26.3780
   Eigenvalues:    20.1151    20.6474    30.7948
     29  C    Isotropic =    41.4508   Anisotropy =   172.4139
   XX=    25.5903   YX=    60.3385   ZX=   -44.4487
   XY=    50.1511   YY=   111.2330   ZY=   -27.7994
   XZ=   -52.8091   YZ=   -45.8636   ZZ=   -12.4708
   Eigenvalues:   -45.6648    13.6239   156.3935
     30  C    Isotropic =    45.2700   Anisotropy =   176.8552
   XX=    54.7102   YX=    61.9849   ZX=   -16.2295
   XY=    58.7041   YY=    89.0275   ZY=   -79.6478
   XZ=    -8.2656   YZ=   -72.6873   ZZ=    -7.9277
   Eigenvalues:   -53.4806    26.1171   163.1735
     31  C    Isotropic =    42.4329   Anisotropy =   170.8698
   XX=     7.9747   YX=    90.0388   ZX=   -22.7279
   XY=    94.8646   YY=    65.2185   ZY=   -54.0334
   XZ=   -10.0902   YZ=   -41.5565   ZZ=    54.1055
   Eigenvalues:   -62.3794    33.3320   156.3461
     32  C    Isotropic =    51.9299   Anisotropy =   178.0361
   XX=    14.3178   YX=    93.5206   ZX=   -21.2700
   XY=    98.9490   YY=    84.9097   ZY=   -43.3531
   XZ=   -16.9872   YZ=   -41.8305   ZZ=    56.5621
   Eigenvalues:   -53.6473    38.8163   170.6206
     33  H    Isotropic =    24.0449   Anisotropy =    12.1574
   XX=    26.5671   YX=    -4.3759   ZX=     6.7497
   XY=    -4.1291   YY=    21.8265   ZY=    -0.1940
   XZ=     3.6521   YZ=    -1.9315   ZZ=    23.7412
   Eigenvalues:    18.3546    21.6304    32.1499
     34  C    Isotropic =    51.1199   Anisotropy =   164.1563
   XX=    75.5438   YX=    53.3980   ZX=   -10.1639
   XY=    54.5687   YY=    86.7680   ZY=   -75.9362
   XZ=   -10.7821   YZ=   -73.8137   ZZ=    -8.9523
   Eigenvalues:   -52.4426    45.2448   160.5574
     35  H    Isotropic =    22.7930   Anisotropy =    14.1483
   XX=    19.5856   YX=     1.0516   ZX=     5.9128
   XY=     1.1791   YY=    19.0230   ZY=    -2.2802
   XZ=     4.2735   YZ=    -3.2118   ZZ=    29.7704
   Eigenvalues:    15.9340    20.2199    32.2252
     36  C    Isotropic =    38.3403   Anisotropy =   218.9962
   XX=    20.0903   YX=    80.6707   ZX=   -65.4278
   XY=    77.8352   YY=   108.2189   ZY=   -49.9240
   XZ=   -62.3806   YZ=   -50.1937   ZZ=   -13.2883
   Eigenvalues:   -63.3815    -5.9354   184.3378
     37  H    Isotropic =    23.8797   Anisotropy =     7.8213
   XX=    23.0935   YX=    -1.4109   ZX=     4.3693
   XY=    -1.5856   YY=    21.2799   ZY=     0.2086
   XZ=     2.2443   YZ=     1.0275   ZZ=    27.2657
   Eigenvalues:    19.6627    22.8825    29.0939
     38  H    Isotropic =    23.6509   Anisotropy =     8.8969
   XX=    24.9149   YX=    -2.3416   ZX=     3.5123
   XY=    -2.0004   YY=    21.0331   ZY=    -1.6674
   XZ=     3.6948   YZ=    -2.3378   ZZ=    25.0048
   Eigenvalues:    20.0024    21.3682    29.5822
     39  C    Isotropic =    43.4331   Anisotropy =   161.2594
   XX=    98.3892   YX=   -61.3360   ZX=    -3.7480
   XY=   -66.8955   YY=    66.6883   ZY=   -26.8511
   XZ=     7.2049   YZ=   -35.8183   ZZ=   -34.7781
   Eigenvalues:   -45.9075    25.2676   150.9394
     40  C    Isotropic =    43.4137   Anisotropy =   180.8778
   XX=    79.8426   YX=   -87.1177   ZX=    50.7682
   XY=   -80.8934   YY=    70.7256   ZY=     8.1340
   XZ=    51.0109   YZ=    17.4051   ZZ=   -20.3272
   Eigenvalues:   -61.2872    27.5293   163.9989
     41  C    Isotropic =    39.1221   Anisotropy =   174.2059
   XX=    50.8240   YX=  -112.2531   ZX=    15.1598
   XY=  -102.2933   YY=    34.0644   ZY=   -30.2733
   XZ=     9.5073   YZ=   -17.4758   ZZ=    32.4779
   Eigenvalues:   -66.0324    28.1393   155.2593
     42  C    Isotropic =    49.9944   Anisotropy =   169.0643
   XX=    67.4521   YX=  -105.5665   ZX=     7.2631
   XY=  -102.7026   YY=    41.6274   ZY=   -28.0454
   XZ=     3.2220   YZ=   -19.7748   ZZ=    40.9036
   Eigenvalues:   -52.6672    39.9464   162.7039
     43  H    Isotropic =    23.8208   Anisotropy =     9.4727
   XX=    23.7214   YX=     3.0324   ZX=     2.4762
   XY=     2.7096   YY=    22.5548   ZY=     4.4523
   XZ=     2.1811   YZ=     3.6302   ZZ=    25.1862
   Eigenvalues:    19.3125    22.0140    30.1360
     44  C    Isotropic =    47.9442   Anisotropy =   157.9802
   XX=    82.4911   YX=   -71.1067   ZX=    49.4743
   XY=   -73.1692   YY=    72.4959   ZY=    18.9403
   XZ=    48.9688   YZ=    20.0020   ZZ=   -11.1544
   Eigenvalues:   -52.9962    43.5645   153.2643
     45  H    Isotropic =    23.4771   Anisotropy =    13.1236
   XX=    22.1256   YX=    -1.7904   ZX=     1.6614
   XY=     0.0191   YY=    16.6268   ZY=     0.7182
   XZ=     2.9865   YZ=     0.5764   ZZ=    31.6788
   Eigenvalues:    16.4184    21.7867    32.2261
     46  C    Isotropic =    36.5115   Anisotropy =   216.0985
   XX=    97.4931   YX=   -90.0285   ZX=    15.2430
   XY=   -95.5131   YY=    67.3828   ZY=   -41.1264
   XZ=     5.0321   YZ=   -31.2019   ZZ=   -55.3415
   Eigenvalues:   -67.2267    -3.8161   180.5771
     47  H    Isotropic =    23.9976   Anisotropy =     6.8418
   XX=    22.3803   YX=     1.2413   ZX=     0.9455
   XY=     1.1115   YY=    21.1187   ZY=     1.0311
   XZ=    -0.2386   YZ=    -0.0285   ZZ=    28.4938
   Eigenvalues:    20.4069    23.0271    28.5588
     48  H    Isotropic =    23.8993   Anisotropy =     8.9323
   XX=    22.9049   YX=     1.2003   ZX=     3.0467
   XY=     2.3411   YY=    22.1525   ZY=     2.3704
   XZ=     3.6774   YZ=     2.7010   ZZ=    26.6404
   Eigenvalues:    20.6989    21.1448    29.8542
     49  C    Isotropic =    48.2157   Anisotropy =   162.6369
   XX=    33.0516   YX=   -42.9046   ZX=     4.3931
   XY=   -58.6508   YY=   108.5076   ZY=    64.1064
   XZ=    -3.3581   YZ=    65.7381   ZZ=     3.0880
   Eigenvalues:   -36.4500    24.4569   156.6403
     50  C    Isotropic =    43.8295   Anisotropy =   179.5255
   XX=     3.3365   YX=   -22.2310   ZX=   -50.7645
   XY=   -12.4857   YY=   131.5087   ZY=    63.4504
   XZ=   -50.0714   YZ=    60.5091   ZZ=    -3.3566
   Eigenvalues:   -57.4679    25.4432   163.5132
     51  C    Isotropic =    38.0349   Anisotropy =   171.1327
   XX=   -46.7164   YX=   -57.6316   ZX=   -24.4894
   XY=   -61.5882   YY=   117.6414   ZY=    37.0944
   XZ=   -19.1386   YZ=    33.9686   ZZ=    43.1796
   Eigenvalues:   -66.9965    28.9777   152.1234
     52  C    Isotropic =    51.5195   Anisotropy =   161.4416
   XX=   -34.4949   YX=   -50.3623   ZX=   -16.1986
   XY=   -51.7004   YY=   127.6546   ZY=    39.4352
   XZ=   -14.1291   YZ=    36.0555   ZZ=    61.3988
   Eigenvalues:   -49.3833    44.7946   159.1473
     53  H    Isotropic =    24.2895   Anisotropy =    11.0375
   XX=    28.0175   YX=     5.4498   ZX=    -4.2212
   XY=     1.4169   YY=    22.5976   ZY=    -0.3903
   XZ=    -4.2786   YZ=    -1.6992   ZZ=    22.2535
   Eigenvalues:    19.7240    21.4967    31.6479
     54  C    Isotropic =    50.0040   Anisotropy =   167.4813
   XX=    24.8321   YX=   -21.6791   ZX=   -58.5692
   XY=   -24.7176   YY=   132.3941   ZY=    53.6688
   XZ=   -50.7929   YZ=    49.8408   ZZ=    -7.2142
   Eigenvalues:   -52.7761    41.1299   161.6582
     55  H    Isotropic =    23.4428   Anisotropy =    12.3825
   XX=    20.7120   YX=    -1.1219   ZX=    -4.2245
   XY=     1.4945   YY=    20.9367   ZY=    -4.3332
   XZ=    -3.5109   YZ=    -3.9783   ZZ=    28.6797
   Eigenvalues:    17.9975    20.6331    31.6978
     56  C    Isotropic =    37.8658   Anisotropy =   201.8487
   XX=     7.3039   YX=   -49.1183   ZX=    -6.1305
   XY=   -54.0200   YY=   124.1631   ZY=    77.6987
   XZ=    -1.3550   YZ=    76.3991   ZZ=   -17.8696
   Eigenvalues:   -57.2165    -1.6177   172.4316
     57  H    Isotropic =    24.3957   Anisotropy =     6.2547
   XX=    23.7185   YX=     1.4341   ZX=    -1.6851
   XY=    -0.1659   YY=    22.5234   ZY=    -2.7469
   XZ=    -0.6525   YZ=    -2.5955   ZZ=    26.9454
   Eigenvalues:    21.2642    23.3575    28.5656
     58  H    Isotropic =    24.1211   Anisotropy =    10.0522
   XX=    25.4972   YX=     2.1111   ZX=    -4.6227
   XY=     3.8525   YY=    21.9338   ZY=    -1.0269
   XZ=    -4.1950   YZ=    -2.0787   ZZ=    24.9324
   Eigenvalues:    19.9181    21.6227    30.8226
     59  C    Isotropic =    40.5688   Anisotropy =   158.9778
   XX=    84.8196   YX=    87.3475   ZX=   -29.0208
   XY=    79.4134   YY=    14.8349   ZY=   -21.1951
   XZ=   -13.4392   YZ=   -16.0905   ZZ=    22.0519
   Eigenvalues:   -40.8411    15.9935   146.5540
     60  C    Isotropic =    41.8671   Anisotropy =   180.9597
   XX=    95.3295   YX=    79.9187   ZX=   -45.1938
   XY=    70.7560   YY=    66.6262   ZY=     5.5369
   XZ=   -50.0845   YZ=    14.5828   ZZ=   -36.3545
   Eigenvalues:   -62.3374    25.4318   162.5069
     61  C    Isotropic =    45.9674   Anisotropy =   175.1401
   XX=   112.8040   YX=    69.5770   ZX=    -5.3376
   XY=    60.7204   YY=    64.9602   ZY=   -41.1798
   XZ=    -5.8400   YZ=   -45.7246   ZZ=   -39.8618
   Eigenvalues:   -57.5374    32.7122   162.7275
     62  C    Isotropic =    51.1196   Anisotropy =   161.6648
   XX=   111.2742   YX=    60.8308   ZX=    -6.0139
   XY=    57.8031   YY=    69.1464   ZY=   -51.1212
   XZ=    -0.7457   YZ=   -49.0235   ZZ=   -27.0617
   Eigenvalues:   -51.2790    45.7418   158.8961
     63  H    Isotropic =    24.8013   Anisotropy =    12.5571
   XX=    23.7081   YX=    -5.3591   ZX=    -5.0402
   XY=    -2.0247   YY=    28.8028   ZY=     2.3773
   XZ=    -4.1794   YZ=     4.3159   ZZ=    21.8929
   Eigenvalues:    18.0950    23.1361    33.1727
     64  C    Isotropic =    50.2415   Anisotropy =   161.2400
   XX=    93.6715   YX=    72.2423   ZX=   -43.0414
   XY=    67.3597   YY=    75.3454   ZY=    21.1819
   XZ=   -49.0299   YZ=    18.9412   ZZ=   -18.2924
   Eigenvalues:   -51.8213    44.8109   157.7348
     65  H    Isotropic =    24.7729   Anisotropy =    13.6495
   XX=    25.1138   YX=    -8.5817   ZX=     1.5912
   XY=    -4.9335   YY=    27.8427   ZY=    -0.8930
   XZ=     3.2398   YZ=    -1.5981   ZZ=    21.3622
   Eigenvalues:    18.9842    21.4620    33.8726
     66  C    Isotropic =    40.5861   Anisotropy =   209.6906
   XX=    90.2013   YX=   109.9821   ZX=   -22.6597
   XY=   115.5492   YY=    28.1694   ZY=   -19.4400
   XZ=   -19.0789   YZ=   -16.1914   ZZ=     3.3878
   Eigenvalues:   -57.8079    -0.8136   180.3799
     67  H    Isotropic =    24.3200   Anisotropy =     8.6253
   XX=    24.6722   YX=    -4.7742   ZX=     1.1336
   XY=    -4.2728   YY=    25.9989   ZY=    -1.4512
   XZ=     0.3533   YZ=    -0.2379   ZZ=    22.2887
   Eigenvalues:    20.7636    22.1261    30.0702
     68  H    Isotropic =    24.1446   Anisotropy =     8.6550
   XX=    23.4729   YX=    -4.8016   ZX=    -1.2622
   XY=    -4.1004   YY=    25.9403   ZY=     2.2559
   XZ=    -0.0578   YZ=     1.7863   ZZ=    23.0206
   Eigenvalues:    19.9063    22.6128    29.9146
     69  C    Isotropic =   159.7324   Anisotropy =    45.7605
   XX=   147.5762   YX=    -7.3889   ZX=   -21.9828
   XY=    -6.0560   YY=   153.5804   ZY=     7.4938
   XZ=   -16.6920   YZ=     8.5254   ZZ=   178.0406
   Eigenvalues:   137.7204   151.2374   190.2394
     70  H    Isotropic =    29.1564   Anisotropy =     8.4467
   XX=    25.1259   YX=    -0.7762   ZX=    -2.0427
   XY=    -0.1838   YY=    32.1977   ZY=     2.2932
   XZ=    -2.2224   YZ=     4.0381   ZZ=    30.1455
   Eigenvalues:    24.2784    28.4033    34.7875
     71  H    Isotropic =    28.6764   Anisotropy =     9.6547
   XX=    33.2999   YX=    -0.6955   ZX=    -4.7183
   XY=    -0.6924   YY=    25.7938   ZY=     0.8066
   XZ=    -2.7171   YZ=     0.8258   ZZ=    26.9356
   Eigenvalues:    24.9519    25.9644    35.1129
     72  H    Isotropic =    28.9420   Anisotropy =     7.5246
   XX=    25.1025   YX=    -1.5416   ZX=    -1.2288
   XY=    -2.6773   YY=    28.0811   ZY=    -0.0918
   XZ=    -0.9191   YZ=    -2.4177   ZZ=    33.6426
   Eigenvalues:    23.7705    29.0972    33.9584
     73  C    Isotropic =   159.6607   Anisotropy =    45.0391
   XX=   161.4102   YX=    -5.1496   ZX=    22.5002
   XY=    -8.0586   YY=   143.7753   ZY=    -0.1972
   XZ=    19.5405   YZ=     3.1712   ZZ=   173.7966
   Eigenvalues:   138.3929   150.9024   189.6868
     74  H    Isotropic =    28.7526   Anisotropy =     8.5449
   XX=    33.9543   YX=    -0.2102   ZX=     1.6896
   XY=     1.2288   YY=    24.3355   ZY=     0.5080
[...]
 Alpha virt. eigenvalues --    1.70117   1.70333   1.70425   1.70964   1.71105
 Alpha virt. eigenvalues --    1.71294   1.71706   1.71934   1.72281   1.72520
 Alpha virt. eigenvalues --    1.72928   1.73102   1.73487   1.73819   1.74111
 Alpha virt. eigenvalues --    1.74221   1.74742   1.74898   1.75146   1.75489
 Alpha virt. eigenvalues --    1.75783   1.76180   1.76296   1.76516   1.76868
 Alpha virt. eigenvalues --    1.77132   1.77659   1.77704   1.77925   1.78279
 Alpha virt. eigenvalues --    1.78526   1.78879   1.78886   1.79624   1.79728
 Alpha virt. eigenvalues --    1.79945   1.80169   1.80338   1.80865   1.80945
 Alpha virt. eigenvalues --    1.81208   1.81327   1.81511   1.82217   1.82446
 Alpha virt. eigenvalues --    1.82686   1.83007   1.83322   1.83575   1.83972
 Alpha virt. eigenvalues --    1.84137   1.84618   1.84775   1.85015   1.85174
 Alpha virt. eigenvalues --    1.85662   1.85960   1.86234   1.86741   1.87394
 Alpha virt. eigenvalues --    1.87712   1.88256   1.88705   1.89109   1.89185
 Alpha virt. eigenvalues --    1.89441   1.89762   1.90281   1.90963   1.91313
 Alpha virt. eigenvalues --    1.91712   1.92131   1.92706   1.93073   1.93188
 Alpha virt. eigenvalues --    1.93591   1.93964   1.94169   1.94553   1.94763
 Alpha virt. eigenvalues --    1.94844   1.95141   1.95355   1.95483   1.95791
 Alpha virt. eigenvalues --    1.96161   1.96367   1.96721   1.97142   1.97437
 Alpha virt. eigenvalues --    1.97519   1.98111   1.98481   1.98607   1.99275
 Alpha virt. eigenvalues --    1.99401   1.99793   1.99859   2.00201   2.00778
 Alpha virt. eigenvalues --    2.01066   2.01300   2.01753   2.01800   2.02320
 Alpha virt. eigenvalues --    2.02456   2.02711   2.03259   2.03437   2.03613
 Alpha virt. eigenvalues --    2.03725   2.04364   2.04391   2.04787   2.04917
 Alpha virt. eigenvalues --    2.05286   2.05428   2.05744   2.05887   2.06334
 Alpha virt. eigenvalues --    2.06475   2.07149   2.07291   2.07608   2.07763
 Alpha virt. eigenvalues --    2.08046   2.08386   2.08889   2.09190   2.09295
 Alpha virt. eigenvalues --    2.09561   2.10066   2.10398   2.10561   2.11042
 Alpha virt. eigenvalues --    2.11052   2.11738   2.12179   2.12633   2.12986
 Alpha virt. eigenvalues --    2.13343   2.14227   2.14553   2.14825   2.15146
 Alpha virt. eigenvalues --    2.16005   2.16531   2.17091   2.17594   2.18209
 Alpha virt. eigenvalues --    2.18519   2.18816   2.19336   2.19457   2.19738
 Alpha virt. eigenvalues --    2.19967   2.20232   2.20522   2.21064   2.21313
 Alpha virt. eigenvalues --    2.21864   2.22068   2.22199   2.22668   2.22753
 Alpha virt. eigenvalues --    2.23200   2.23648   2.23867   2.24394   2.24934
 Alpha virt. eigenvalues --    2.25362   2.25416   2.25598   2.26131   2.26606
 Alpha virt. eigenvalues --    2.26623   2.28010   2.28221   2.28772   2.29012
 Alpha virt. eigenvalues --    2.29350   2.29492   2.29878   2.30080   2.30271
 Alpha virt. eigenvalues --    2.30421   2.30797   2.30936   2.31040   2.31483
 Alpha virt. eigenvalues --    2.31836   2.32008   2.32307   2.32643   2.32729
 Alpha virt. eigenvalues --    2.33107   2.33598   2.33893   2.34081   2.34361
 Alpha virt. eigenvalues --    2.34423   2.34812   2.34849   2.35530   2.35974
 Alpha virt. eigenvalues --    2.36081   2.36185   2.36550   2.36752   2.37465
 Alpha virt. eigenvalues --    2.37796   2.38194   2.38674   2.39031   2.39167
 Alpha virt. eigenvalues --    2.40629   2.40978   2.41210   2.41429   2.41519
 Alpha virt. eigenvalues --    2.41774   2.42152   2.42521   2.43304   2.43345
 Alpha virt. eigenvalues --    2.43730   2.43804   2.43876   2.44485   2.44826
 Alpha virt. eigenvalues --    2.45182   2.45568   2.45862   2.46414   2.47152
 Alpha virt. eigenvalues --    2.47590   2.47753   2.48375   2.48546   2.49453
 Alpha virt. eigenvalues --    2.49843   2.50226   2.50460   2.50754   2.51345
 Alpha virt. eigenvalues --    2.52087   2.52501   2.52631   2.53213   2.53403
 Alpha virt. eigenvalues --    2.54002   2.54454   2.54623   2.55268   2.55600
 Alpha virt. eigenvalues --    2.56403   2.56607   2.57524   2.57942   2.58421
 Alpha virt. eigenvalues --    2.58854   2.59294   2.59809   2.59894   2.60552
 Alpha virt. eigenvalues --    2.61064   2.61347   2.62239   2.62594   2.62724
 Alpha virt. eigenvalues --    2.63141   2.63538   2.64193   2.64674   2.65509
 Alpha virt. eigenvalues --    2.65570   2.66221   2.67164   2.68272   2.68641
 Alpha virt. eigenvalues --    2.69302   2.69461   2.69867   2.69989   2.70868
 Alpha virt. eigenvalues --    2.71003   2.71210   2.71593   2.71875   2.72328
 Alpha virt. eigenvalues --    2.72798   2.73455   2.73561   2.74357   2.74712
 Alpha virt. eigenvalues --    2.74872   2.75366   2.75595   2.76089   2.76516
 Alpha virt. eigenvalues --    2.77829   2.78145   2.78394   2.78906   2.79190
 Alpha virt. eigenvalues --    2.79385   2.79704   2.80557   2.80848   2.81111
 Alpha virt. eigenvalues --    2.81290   2.81508   2.82334   2.82776   2.84696
 Alpha virt. eigenvalues --    2.84986   2.86166   2.87144   2.87611   2.87666
 Alpha virt. eigenvalues --    2.88726   2.88927   2.89176   2.89582   2.90183
 Alpha virt. eigenvalues --    2.91040   2.91391   2.91590   2.92210   2.92683
 Alpha virt. eigenvalues --    2.92947   2.93335   2.93559   2.94155   2.94581
 Alpha virt. eigenvalues --    2.95161   2.95391   2.95844   2.96139   2.97143
 Alpha virt. eigenvalues --    2.97532   2.97921   2.98456   2.99855   2.99968
 Alpha virt. eigenvalues --    3.00421   3.00854   3.01211   3.01875   3.02062
 Alpha virt. eigenvalues --    3.03095   3.03424   3.04094   3.04641   3.07118
 Alpha virt. eigenvalues --    3.07538   3.08396   3.09196   3.10194   3.10238
 Alpha virt. eigenvalues --    3.10436   3.10765   3.10976   3.11234   3.11918
 Alpha virt. eigenvalues --    3.11974   3.12136   3.12635   3.12904   3.13166
 Alpha virt. eigenvalues --    3.13480   3.13927   3.14007   3.14270   3.14569
 Alpha virt. eigenvalues --    3.14881   3.15193   3.15576   3.16041   3.17498
 Alpha virt. eigenvalues --    3.17793   3.18362   3.19273   3.19550   3.20464
 Alpha virt. eigenvalues --    3.20728   3.20853   3.21010   3.21473   3.22216
 Alpha virt. eigenvalues --    3.22803   3.23279   3.23604   3.24182   3.25068
 Alpha virt. eigenvalues --    3.25560   3.26159   3.27347   3.27583   3.28531
 Alpha virt. eigenvalues --    3.28672   3.29010   3.29617   3.30274   3.30729
 Alpha virt. eigenvalues --    3.30982   3.35161   3.35943   3.36290   3.37890
 Alpha virt. eigenvalues --    3.38233   3.42016   3.44576   3.45082   3.47581
 Alpha virt. eigenvalues --    3.48888   3.49805   3.50827   3.51988   3.52839
 Alpha virt. eigenvalues --    3.53353   3.54725   3.54923   3.55097   3.56146
 Alpha virt. eigenvalues --    3.56471   3.58792   3.61109   3.63901   3.70559
 Alpha virt. eigenvalues --    3.75491   3.79051   3.92274   3.93401   3.99625
 Alpha virt. eigenvalues --    4.02758   4.06170   4.08358   4.18190   4.19988
 Alpha virt. eigenvalues --    4.20728   4.21856   4.22713   4.22810   4.24230
 Alpha virt. eigenvalues --    4.25306   4.26219   4.27419   4.27537   4.28011
 Alpha virt. eigenvalues --    4.28409   4.29438   4.30184   4.30765   4.30986
 Alpha virt. eigenvalues --    4.32836   4.33947   4.36452   4.39025   4.40549
 Alpha virt. eigenvalues --    4.41154   4.41619   4.42751   4.43132   4.43725
 Alpha virt. eigenvalues --    4.44602   4.45408   4.46119   4.49075   4.50691
 Alpha virt. eigenvalues --    4.53186   4.55590   4.56394   4.58646   4.60031
 Alpha virt. eigenvalues --    4.61071   4.64902   4.81120   4.81846   4.82047
 Alpha virt. eigenvalues --    4.82316   4.82848   4.84235   5.52020   5.56462
 Alpha virt. eigenvalues --    5.72871   5.91406   6.09402   6.16462   6.70512
 Alpha virt. eigenvalues --    6.70812   6.71383   6.71982   6.72281   6.72531
 Alpha virt. eigenvalues --    6.72727   6.75390   6.75655   6.76215   6.76748
 Alpha virt. eigenvalues --    6.77586   6.77913   6.78638   6.79416   6.79497
 Alpha virt. eigenvalues --    6.80401   6.80895   6.83187   6.83426   6.83676
 Alpha virt. eigenvalues --    6.84707   6.85659   6.87222   6.88099   6.88717
 Alpha virt. eigenvalues --    6.88844   6.90120   6.90546   6.91149   6.92277
 Alpha virt. eigenvalues --    6.92862   6.93411   6.94901   6.97594   7.14436
 Alpha virt. eigenvalues --    7.15168   7.16365   7.17143   7.18834   7.20702
 Alpha virt. eigenvalues --    7.21483   7.23123   7.24544   7.25389   7.26592
 Alpha virt. eigenvalues --    7.31201   7.79129   7.80545   7.82674   7.84061
 Alpha virt. eigenvalues --    7.86631   7.89546   8.48115   8.49333   8.49617
 Alpha virt. eigenvalues --    8.50190   8.50398   8.51875   8.52509   8.57501
 Alpha virt. eigenvalues --    8.60562   8.97897   9.83565   9.85176   9.86162
 Alpha virt. eigenvalues --    9.87412   9.89560   9.89924   9.94838   9.96072
 Alpha virt. eigenvalues --    9.99747  10.01720  10.03793  10.06656  10.06939
 Alpha virt. eigenvalues --   10.08689  10.09927  10.15023  10.24419  14.24252
 Alpha virt. eigenvalues --   14.26276  15.65518  16.77077  16.81061  16.88491
 Alpha virt. eigenvalues --   17.03588  17.03687  17.03996  17.04156  17.04325
 Alpha virt. eigenvalues --   17.05088  17.06170  17.07099  17.08611  17.09762
 Alpha virt. eigenvalues --   17.10310  17.10684  17.11777  17.13888  17.14347
 Alpha virt. eigenvalues --   17.14740  17.15613  17.16446  17.17292  17.17576
 Alpha virt. eigenvalues --   17.20105  17.20841  17.22542  17.23278  17.25133
 Alpha virt. eigenvalues --   17.25529  17.26992  17.27621  17.30660  17.33531
 Alpha virt. eigenvalues --   17.35075  17.35909  17.36245  17.36779  17.37296
 Alpha virt. eigenvalues --   17.38330  17.39407  17.40775  17.41105  17.43950
 Alpha virt. eigenvalues --   17.44980  17.47432  17.49645  21.13199  21.30198
 Alpha virt. eigenvalues --   21.36258  25.49233  25.53086  25.65302  26.12676
 Alpha virt. eigenvalues --   31.67087  31.69994  31.73155  31.77655  31.79252
 Alpha virt. eigenvalues --   42.96171  43.00535  43.03651  43.05042  43.14481
 Alpha virt. eigenvalues --   61.93770  61.95152  63.01976  78.09257  78.12962
 Alpha virt. eigenvalues --   78.19646  78.35265  82.16312  86.22886  86.37858
 Alpha virt. eigenvalues --   86.41772  89.29702  89.29897  89.30085  89.30385
 Alpha virt. eigenvalues --   89.30452  89.31311  89.33332  89.35274  89.36145
 Alpha virt. eigenvalues --   89.36559  89.37555  89.38498  89.39064  89.39837
 Alpha virt. eigenvalues --   89.41298  89.41648  89.42371  89.43097  89.43665
 Alpha virt. eigenvalues --   89.45238  89.46263  89.47316  89.47546  89.49784
 Alpha virt. eigenvalues --   89.51170  89.52102  89.53585  89.57003  89.60047
 Alpha virt. eigenvalues --   89.62299  89.62892  89.64188  89.64713  89.65262
 Alpha virt. eigenvalues --   89.65652  89.67170  89.67484  89.67545  89.70382
 Alpha virt. eigenvalues --   89.71074  89.73685  89.76218 121.83876 121.86615
 Alpha virt. eigenvalues --  121.95299 239.19659 257.27789 332.27199 332.28595
 Alpha virt. eigenvalues --  428.81113 428.92606 428.96005 431.71055 431.74923
 Alpha virt. eigenvalues --  431.82081 431.98223 590.21010 590.23133 590.29803
 Alpha virt. eigenvalues --  772.95650 839.594812068.558492529.969975495.36064
 Alpha virt. eigenvalues -- ******************************
          Condensed to atoms (all electrons):
 Mulliken charges:
               1
     1  Pt   0.131886
     2  Sn   0.388129
     3  Cl  -0.210613
     4  Cl  -0.225810
     5  Cl  -0.210665
     6  Cl  -0.356496
     7  P    1.354527
     8  P    1.141456
     9  C   -1.103811
    10  C    0.650748
    11  C    0.488114
    12  C   -0.308081
    13  H    0.054920
    14  C   -0.593047
    15  H    0.067336
    16  C    0.106535
    17  H    0.066366
    18  H    0.068896
    19  C   -0.938016
    20  C    0.505448
    21  C    0.469928
    22  C   -0.299882
    23  H    0.085642
    24  C   -0.423749
    25  H    0.058984
    26  C   -0.189422
    27  H    0.096113
    28  H    0.084274
    29  C   -0.917825
    30  C    0.285133
    31  C    0.702566
    32  C   -0.269743
    33  H    0.063769
    34  C   -0.290957
    35  H    0.062344
    36  C   -0.209609
    37  H    0.102177
    38  H    0.093905
    39  C   -0.753177
    40  C    0.459095
    41  C    0.531784
    42  C   -0.324695
    43  H    0.050049
    44  C   -0.406607
    45  H    0.055279
    46  C   -0.130931
    47  H    0.089375
    48  H    0.087250
    49  C   -0.920118
    50  C    0.521796
    51  C    0.569420
    52  C   -0.415303
    53  H    0.085251
    54  C   -0.447155
    55  H    0.043177
    56  C   -0.084197
    57  H    0.097207
    58  H    0.069296
    59  C   -1.123928
    60  C    0.583167
    61  C    0.475781
    62  C   -0.275399
    63  H    0.082746
    64  C   -0.365942
    65  H    0.095213
    66  C   -0.126580
    67  H    0.098255
    68  H    0.097157
    69  C   -0.334806
    70  H    0.144119
    71  H    0.153527
    72  H    0.145552
    73  C   -0.289093
    74  H    0.144936
    75  H    0.151442
    76  H    0.135005
    77  C   -0.311918
    78  H    0.137708
    79  H    0.148600
    80  H    0.143036
    81  C   -0.316783
    82  H    0.138115
    83  H    0.149712
    84  H    0.150313
    85  C   -0.354094
    86  H    0.144234
    87  H    0.155638
    88  H    0.147024
    89  C   -0.318206
    90  H    0.139436
    91  H    0.149236
    92  H    0.148530
 Sum of Mulliken charges =   0.00000
 Mulliken charges with hydrogens summed into heavy atoms:
               1
     1  Pt   0.131886
     2  Sn   0.388129
     3  Cl  -0.210613
     4  Cl  -0.225810
     5  Cl  -0.210665
     6  Cl  -0.356496
     7  P    1.354527
     8  P    1.141456
     9  C   -1.103811
    10  C    0.705668
    11  C    0.555449
    12  C   -0.241715
    14  C   -0.524151
    16  C    0.106535
    19  C   -0.938016
    20  C    0.591090
    21  C    0.528913
    22  C   -0.203768
    24  C   -0.339475
    26  C   -0.189422
    29  C   -0.917825
    30  C    0.348903
    31  C    0.764910
    32  C   -0.167567
    34  C   -0.197052
    36  C   -0.209609
    39  C   -0.753177
    40  C    0.509144
    41  C    0.587063
    42  C   -0.235320
    44  C   -0.319357
    46  C   -0.130931
    49  C   -0.920118
    50  C    0.607047
    51  C    0.612596
    52  C   -0.318095
    54  C   -0.377858
    56  C   -0.084197
    59  C   -1.123928
    60  C    0.665914
    61  C    0.570994
    62  C   -0.177144
    64  C   -0.268785
    66  C   -0.126580
    69  C    0.108391
    73  C    0.142291
    77  C    0.117425
    81  C    0.121357
    85  C    0.092801
    89  C    0.118997
 Electronic spatial extent (au):  <R**2>=          37368.6032
 Charge=              0.0000 electrons
 Dipole moment (field-independent basis, Debye):
    X=             13.1946    Y=             17.8788    Z=              0.3950  Tot=             22.2240
 Quadrupole moment (field-independent basis, Debye-Ang):
   XX=           -365.6926   YY=           -383.0367   ZZ=           -324.3917
   XY=            -31.8201   XZ=              0.0404   YZ=             -0.3584
 Traceless Quadrupole moment (field-independent basis, Debye-Ang):
   XX=             -7.9856   YY=            -25.3297   ZZ=             33.3153
   XY=            -31.8201   XZ=              0.0404   YZ=             -0.3584
 Octapole moment (field-independent basis, Debye-Ang**2):
  XXX=            103.6948  YYY=             12.5933  ZZZ=             30.5775  XYY=            130.9943
  XXY=             85.0295  XXZ=            -38.5821  XZZ=            -35.1799  YZZ=             54.2759
  YYZ=             -1.7476  XYZ=            -13.5346
 Hexadecapole moment (field-independent basis, Debye-Ang**3):
 XXXX=         -21492.7672 YYYY=         -15185.5080 ZZZZ=         -11501.1516 XXXY=           -392.6172
 XXXZ=             56.5419 YYYX=           -144.5360 YYYZ=             53.8314 ZZZX=              4.7293
 ZZZY=             77.5418 XXYY=          -5683.4309 XXZZ=          -5062.0973 YYZZ=          -4516.0567
 XXYZ=            -59.9393 YYXZ=           -114.6670 ZZXY=              5.3881
 N-N= 1.411627026137D+04 E-N=-9.265413152361D+04  KE= 2.682998506509D+04
 Calculating spin-rotation constants.
 Leave Link  601 at Thu Sep  6 03:18:19 2018, MaxMem=  2013265920 cpu:      2008.4
 (Enter /scr/programs/g09/l9999.exe)
 1\1\GINC-NEQC17\SP\RPBEPBE\Gen\C42H42Cl4P2Pt1Sn1\DIEGO\06-Sep-2018\0\\
 #PBEPBE/gen scf=(maxcycle=1000,conver=4) NMR=GIAO Scrf=(solvent=Chloro
 form)\\estrutura 11\\0,1\Pt,0,-0.145059,-0.890844,-0.105081\Sn,0,-2.56
 9819,-2.030327,-0.073082\Cl,0,-4.673634,-0.814555,0.066876\Cl,0,-2.936
 108,-3.441869,1.864275\Cl,0,-3.141162,-3.488252,-1.913991\Cl,0,0.33844
 1,-3.276895,-0.171219\P,0,-1.006196,1.268131,-0.073941\P,0,2.210581,-0
 .413529,0.075377\C,0,0.103475,2.716845,-0.346775\C,0,0.877607,3.220195
 ,0.714002\C,0,0.18357,3.355648,-1.592915\C,0,1.700463,4.32945,0.52807\
 H,0,0.826105,2.75994,1.700299\C,0,1.013708,4.464595,-1.770739\H,0,-0.4
 11387,3.000102,-2.434391\C,0,1.788839,4.973159,-0.717317\H,0,2.284537,
 4.705547,1.372981\H,0,1.053839,4.945929,-2.750101\C,0,-1.822624,1.6918
 83,1.521545\C,0,-2.2001,3.020225,1.804349\C,0,-2.075952,0.710566,2.493
 147\C,0,-2.834118,3.339271,3.004525\H,0,-1.98483,3.822053,1.095608\C,0
 ,-2.705709,1.040793,3.694582\H,0,-1.766941,-0.322151,2.32633\C,0,-3.10
 6227,2.355099,3.971719\H,0,-3.117321,4.379682,3.19643\H,0,-2.885553,0.
 254047,4.430644\C,0,-2.256567,1.4385,-1.420502\C,0,-3.388845,2.26048,-
 1.299445\C,0,-2.06028,0.747078,-2.627119\C,0,-4.288522,2.387587,-2.355
 947\H,0,-3.594455,2.787404,-0.367452\C,0,-2.964819,0.883581,-3.683554\
 H,0,-1.205434,0.076797,-2.747974\C,0,-4.0955,1.706702,-3.570022\H,0,-5
 .170331,3.021672,-2.229268\H,0,-2.791938,0.325535,-4.608464\C,0,2.5453
 59,0.362353,1.708959\C,0,3.451121,1.411779,1.932727\C,0,1.855894,-0.17
 2016,2.812374\C,0,3.668052,1.897093,3.223598\H,0,3.982616,1.8758,1.102
 225\C,0,2.085221,0.314165,4.101392\H,0,1.132183,-0.977522,2.668335\C,0
 ,2.996747,1.355917,4.333978\H,0,4.377346,2.716598,3.370155\H,0,1.54012
 8,-0.125057,4.940608\C,0,2.945986,0.561891,-1.296669\C,0,4.303688,0.93
 8561,-1.293965\C,0,2.193005,0.788587,-2.461534\C,0,4.8686,1.56401,-2.4
 06007\H,0,4.943658,0.718338,-0.43446\C,0,2.773035,1.392345,-3.579004\H
 ,0,1.152243,0.466357,-2.50336\C,0,4.116085,1.804335,-3.569119\H,0,5.92
 6478,1.852315,-2.375866\H,0,2.167354,1.541022,-4.477793\C,0,3.290449,-
 1.907917,0.046777\C,0,3.508126,-2.552012,-1.183733\C,0,3.904855,-2.428
 676,1.194581\C,0,4.329513,-3.67466,-1.261109\H,0,3.03429,-2.177168,-2.
 093424\C,0,4.727031,-3.555695,1.106908\H,0,3.752195,-1.95897,2.167331\
 C,0,4.959616,-4.197587,-0.11886\H,0,4.481328,-4.158762,-2.229893\H,0,5
 .197584,-3.941607,2.015679\C,0,-3.817285,2.702446,5.254438\H,0,-3.6503
 04,3.751218,5.540017\H,0,-4.905941,2.562775,5.143175\H,0,-3.491574,2.0
 58383,6.084338\C,0,-5.082246,1.850582,-4.700266\H,0,-6.100339,1.584985
 ,-4.371851\H,0,-5.123168,2.892673,-5.060137\H,0,-4.820374,1.206869,-5.
 552146\C,0,2.691583,6.165257,-0.910048\H,0,2.482719,6.684798,-1.857675
 \H,0,2.579108,6.889973,-0.087599\H,0,3.752594,5.857318,-0.924996\C,0,3
 .241537,1.891339,5.721638\H,0,2.759995,1.266448,6.487478\H,0,4.319308,
 1.940308,5.945454\H,0,2.845768,2.915804,5.82577\C,0,5.875938,-5.391466
 ,-0.212685\H,0,5.636164,-6.016891,-1.085748\H,0,6.928036,-5.071506,-0.
 31724\H,0,5.816287,-6.018424,0.69025\C,0,4.726336,2.480929,-4.77117\H,
 0,5.82264,2.526952,-4.698334\H,0,4.46302,1.955665,-5.70271\H,0,4.35416
 8,3.515306,-4.869154\\Version=EM64L-G09RevD.01\State=1-A\HF=-27237.747
 4596\RMSD=1.986e-05\Dipole=5.1911754,7.0340743,0.1554031\Quadrupole=-5
 .9370869,-18.8319936,24.7690805,-23.6574396,0.0300642,-0.2664445\PG=C0
 1 [X(C42H42Cl4P2Pt1Sn1)]\\@


 I LOVE MANKIND - IT'S PEOPLE I CAN'T STAND.
     -- LINUS OF PEANUTS
 Job cpu time:       1 days 23 hours 32 minutes 28.3 seconds.
 File lengths (MBytes):  RWF=   2721 Int=      0 D2E=      0 Chk=    193 Scr=      1
 Normal termination of Gaussian 09 at Thu Sep  6 03:18:20 2018.
