 Entering Gaussian System, Link 0=g09
 Input=/home/nqtcm/diego/estrutura76.com
 Output=/home/nqtcm/diego/estrutura76.log
 Initial command:
 /scr/programas/g09/l1.exe "/scr/nqtcm/Gau-10220.inp" -scrdir="/scr/nqtcm/"
 Entering Link 1 = /scr/programas/g09/l1.exe PID=     10222.
  
 Copyright (c) 1988,1990,1992,1993,1995,1998,2003,2009,2013,
            Gaussian, Inc.  All Rights Reserved.
  
 This is part of the Gaussian(R) 09 program.  It is based on
 the Gaussian(R) 03 system (copyright 2003, Gaussian, Inc.),
 the Gaussian(R) 98 system (copyright 1998, Gaussian, Inc.),
 the Gaussian(R) 94 system (copyright 1995, Gaussian, Inc.),
 the Gaussian 92(TM) system (copyright 1992, Gaussian, Inc.),
 the Gaussian 90(TM) system (copyright 1990, Gaussian, Inc.),
 the Gaussian 88(TM) system (copyright 1988, Gaussian, Inc.),
 the Gaussian 86(TM) system (copyright 1986, Carnegie Mellon
 University), and the Gaussian 82(TM) system (copyright 1983,
 Carnegie Mellon University). Gaussian is a federally registered
 trademark of Gaussian, Inc.
  
 This software contains proprietary and confidential information,
 including trade secrets, belonging to Gaussian, Inc.
  
 This software is provided under written license and may be
 used, copied, transmitted, or stored only in accord with that
 written license.
  
 The following legend is applicable only to US Government
 contracts under FAR:
  
                    RESTRICTED RIGHTS LEGEND
  
 Use, reproduction and disclosure by the US Government is
 subject to restrictions as set forth in subparagraphs (a)
 and (c) of the Commercial Computer Software - Restricted
 Rights clause in FAR 52.227-19.
  
 Gaussian, Inc.
 340 Quinnipiac St., Bldg. 40, Wallingford CT 06492
  
  
 ---------------------------------------------------------------
 Warning -- This program may not be used in any manner that
 competes with the business of Gaussian, Inc. or will provide
 assistance to any competitor of Gaussian, Inc.  The licensee
 of this program is prohibited from giving any competitor of
 Gaussian, Inc. access to this program.  By using this program,
 the user acknowledges that Gaussian, Inc. is engaged in the
 business of creating and licensing software in the field of
 computational chemistry and represents and warrants to the
 licensee that it is not a competitor of Gaussian, Inc. and that
 it will not use this program in any manner prohibited above.
 ---------------------------------------------------------------
  

 Cite this work as:
 Gaussian 09, Revision D.01,
 M. J. Frisch, G. W. Trucks, H. B. Schlegel, G. E. Scuseria, 
 M. A. Robb, J. R. Cheeseman, G. Scalmani, V. Barone, B. Mennucci, 
 G. A. Petersson, H. Nakatsuji, M. Caricato, X. Li, H. P. Hratchian, 
 A. F. Izmaylov, J. Bloino, G. Zheng, J. L. Sonnenberg, M. Hada, 
 M. Ehara, K. Toyota, R. Fukuda, J. Hasegawa, M. Ishida, T. Nakajima, 
 Y. Honda, O. Kitao, H. Nakai, T. Vreven, J. A. Montgomery, Jr., 
 J. E. Peralta, F. Ogliaro, M. Bearpark, J. J. Heyd, E. Brothers, 
 K. N. Kudin, V. N. Staroverov, T. Keith, R. Kobayashi, J. Normand, 
 K. Raghavachari, A. Rendell, J. C. Burant, S. S. Iyengar, J. Tomasi, 
 M. Cossi, N. Rega, J. M. Millam, M. Klene, J. E. Knox, J. B. Cross, 
 V. Bakken, C. Adamo, J. Jaramillo, R. Gomperts, R. E. Stratmann, 
 O. Yazyev, A. J. Austin, R. Cammi, C. Pomelli, J. W. Ochterski, 
 R. L. Martin, K. Morokuma, V. G. Zakrzewski, G. A. Voth, 
 P. Salvador, J. J. Dannenberg, S. Dapprich, A. D. Daniels, 
 O. Farkas, J. B. Foresman, J. V. Ortiz, J. Cioslowski, 
 and D. J. Fox, Gaussian, Inc., Wallingford CT, 2013.
 
 ******************************************
 Gaussian 09:  EM64L-G09RevD.01 24-Apr-2013
                25-Aug-2019 
 ******************************************
 %mem=7Gb
 %nproc=4
 Will use up to    4 processors via shared memory.
 ----------------------------------------------------------------------
 #PBEPBE/gen scf=(maxcycle=500,conver=4) NMR=GIAO Scrf=(solvent=Dichlor
 omethane)
 ----------------------------------------------------------------------
 1/38=1/1;
 2/12=2,17=6,18=5,40=1/2;
 3/5=7,11=2,16=1,25=1,30=1,70=2201,72=9,74=1009/1,2,8,3;
 4//1;
 5/5=2,6=4,7=500,38=5,53=9/2;
 8/6=1,10=90,11=11/1;
 10/13=100,45=16/2;
 6/7=2,8=2,9=2,10=2,28=1/1;
 99/9=1/99;
 Leave Link    1 at Sun Aug 25 10:14:35 2019, MaxMem=   939524096 cpu:         0.2
 (Enter /scr/programas/g09/l101.exe)
 ------------
 estrutura 76
 ------------
 Symbolic Z-matrix:
 Charge =  0 Multiplicity = 1
 Pt                   -0.17234  -0.02014  -0.04507 
 P                     0.06723   2.37747  -0.10203 
 P                    -0.51628  -2.38768   0.11969 
 C                     0.28306   2.96078   1.64393 
 H                     1.05904   2.30215   2.0648 
 H                    -0.65611   2.70025   2.15844 
 C                     0.65441   4.42833   1.87909 
 H                    -0.06532   5.1259    1.42398 
 H                     0.67695   4.63539   2.96095 
 H                     1.6538    4.66233   1.48292 
 C                     1.59568   2.92678  -1.02154 
 H                     1.73331   2.21641  -1.85043 
 C                    -1.30945   3.38707  -0.84193 
 H                    -0.85605   4.32354  -1.19751 
 H                    -1.63826   2.83796  -1.73776 
 C                    -2.50697   3.71901   0.05187 
 H                    -3.25093   4.28407  -0.53358 
 H                    -3.00127   2.82021   0.44677 
 H                    -2.21642   4.3538    0.9039 
 C                     0.33867  -3.37021  -1.19868 
 H                     0.09939  -4.43303  -1.03087 
 H                     1.42029  -3.26309  -1.00945 
 C                    -0.01452  -2.94485  -2.6261 
 H                    -1.08591  -3.07941  -2.84422 
 H                     0.23501  -1.88452  -2.79686 
 H                     0.54627  -3.54775  -3.35421 
 C                    -2.29203  -2.93115   0.05338 
 H                    -2.77524  -2.47247   0.93264 
 H                    -2.74372  -2.4307   -0.81858 
 C                    -2.54584  -4.44      0.01055 
 H                    -3.62732  -4.63393   0.08155 
 H                    -2.19278  -4.89284  -0.92925 
 H                    -2.06271  -4.97468   0.84361 
 C                     0.12961  -3.10769   1.70272 
 H                    -0.18601  -4.16422   1.73665 
 H                     1.22979  -3.11168   1.622 
 C                    -0.3138   -2.36555   2.96765 
 H                     0.07639  -2.87999   3.86252 
 H                     0.06955  -1.33149   2.97771 
 H                    -1.41175  -2.32259   3.06582 
 Sn                    2.54602  -0.3421   -0.04444 
 Cl                    3.86707   0.13398  -2.0567 
 Cl                    3.76792   1.05825   1.57648 
 Cl                    3.66512  -2.45961   0.50655 
 C                     1.68356   4.35831  -1.5596 
 H                     2.69397   4.52721  -1.96511 
 H                     0.97304   4.53457  -2.38024 
 H                     1.50766   5.11993  -0.78716 
 H                     2.4212    2.73515  -0.31705 
 C                    -2.21178   0.23113  -0.00203 
 C                    -2.91915   0.31663   1.20939 
 C                    -2.95322   0.28789  -1.19511 
 C                    -4.31422   0.44383   1.23051 
 H                    -2.3839    0.27736   2.16251 
 C                    -4.3475    0.41908  -1.18588 
 H                    -2.44408   0.22876  -2.16162 
 C                    -5.03769   0.49601   0.03235 
 H                    -4.85792   0.50896   2.17638 
 H                    -4.89505   0.4735   -2.13003 
 O                    -6.39688   0.67579   0.09926 
 C                    -7.21167  -0.26957  -0.57914 
 H                    -7.1108   -1.2758   -0.12506 
 H                    -8.25285   0.07074  -0.47578 
 H                    -6.97344  -0.34675  -1.65594 
 
 NAtoms=     64 NQM=       64 NQMF=       0 NMMI=      0 NMMIF=      0
                NMic=       0 NMicF=      0.
                    Isotopes and Nuclear Properties:
 (Nuclear quadrupole moments (NQMom) in fm**2, nuclear magnetic moments (NMagM)
  in nuclear magnetons)

  Atom         1           2           3           4           5           6           7           8           9          10
 IAtWgt=         195          31          31          12           1           1          12           1           1           1
 AtmWgt= 194.9648000  30.9737634  30.9737634  12.0000000   1.0078250   1.0078250  12.0000000   1.0078250   1.0078250   1.0078250
 NucSpn=           1           1           1           0           1           1           0           1           1           1
 AtZEff=   0.0000000   0.0000000   0.0000000   0.0000000   0.0000000   0.0000000   0.0000000   0.0000000   0.0000000   0.0000000
 NQMom=    0.0000000   0.0000000   0.0000000   0.0000000   0.0000000   0.0000000   0.0000000   0.0000000   0.0000000   0.0000000
 NMagM=    0.6095000   1.1316000   1.1316000   0.0000000   2.7928460   2.7928460   0.0000000   2.7928460   2.7928460   2.7928460
 AtZNuc=  78.0000000  15.0000000  15.0000000   6.0000000   1.0000000   1.0000000   6.0000000   1.0000000   1.0000000   1.0000000

  Atom        11          12          13          14          15          16          17          18          19          20
 IAtWgt=          12           1          12           1           1          12           1           1           1          12
 AtmWgt=  12.0000000   1.0078250  12.0000000   1.0078250   1.0078250  12.0000000   1.0078250   1.0078250   1.0078250  12.0000000
 NucSpn=           0           1           0           1           1           0           1           1           1           0
 AtZEff=   0.0000000   0.0000000   0.0000000   0.0000000   0.0000000   0.0000000   0.0000000   0.0000000   0.0000000   0.0000000
 NQMom=    0.0000000   0.0000000   0.0000000   0.0000000   0.0000000   0.0000000   0.0000000   0.0000000   0.0000000   0.0000000
 NMagM=    0.0000000   2.7928460   0.0000000   2.7928460   2.7928460   0.0000000   2.7928460   2.7928460   2.7928460   0.0000000
 AtZNuc=   6.0000000   1.0000000   6.0000000   1.0000000   1.0000000   6.0000000   1.0000000   1.0000000   1.0000000   6.0000000

  Atom        21          22          23          24          25          26          27          28          29          30
 IAtWgt=           1           1          12           1           1           1          12           1           1          12
 AtmWgt=   1.0078250   1.0078250  12.0000000   1.0078250   1.0078250   1.0078250  12.0000000   1.0078250   1.0078250  12.0000000
 NucSpn=           1           1           0           1           1           1           0           1           1           0
 AtZEff=   0.0000000   0.0000000   0.0000000   0.0000000   0.0000000   0.0000000   0.0000000   0.0000000   0.0000000   0.0000000
 NQMom=    0.0000000   0.0000000   0.0000000   0.0000000   0.0000000   0.0000000   0.0000000   0.0000000   0.0000000   0.0000000
 NMagM=    2.7928460   2.7928460   0.0000000   2.7928460   2.7928460   2.7928460   0.0000000   2.7928460   2.7928460   0.0000000
 AtZNuc=   1.0000000   1.0000000   6.0000000   1.0000000   1.0000000   1.0000000   6.0000000   1.0000000   1.0000000   6.0000000

  Atom        31          32          33          34          35          36          37          38          39          40
 IAtWgt=           1           1           1          12           1           1          12           1           1           1
 AtmWgt=   1.0078250   1.0078250   1.0078250  12.0000000   1.0078250   1.0078250  12.0000000   1.0078250   1.0078250   1.0078250
 NucSpn=           1           1           1           0           1           1           0           1           1           1
 AtZEff=   0.0000000   0.0000000   0.0000000   0.0000000   0.0000000   0.0000000   0.0000000   0.0000000   0.0000000   0.0000000
 NQMom=    0.0000000   0.0000000   0.0000000   0.0000000   0.0000000   0.0000000   0.0000000   0.0000000   0.0000000   0.0000000
 NMagM=    2.7928460   2.7928460   2.7928460   0.0000000   2.7928460   2.7928460   0.0000000   2.7928460   2.7928460   2.7928460
 AtZNuc=   1.0000000   1.0000000   1.0000000   6.0000000   1.0000000   1.0000000   6.0000000   1.0000000   1.0000000   1.0000000

  Atom        41          42          43          44          45          46          47          48          49          50
 IAtWgt=         118          35          35          35          12           1           1           1           1          12
 AtmWgt= 117.9018000  34.9688527  34.9688527  34.9688527  12.0000000   1.0078250   1.0078250   1.0078250   1.0078250  12.0000000
 NucSpn=           0           3           3           3           0           1           1           1           1           0
 AtZEff=   0.0000000   0.0000000   0.0000000   0.0000000   0.0000000   0.0000000   0.0000000   0.0000000   0.0000000   0.0000000
 NQMom=    0.0000000  -8.1650000  -8.1650000  -8.1650000   0.0000000   0.0000000   0.0000000   0.0000000   0.0000000   0.0000000
 NMagM=    0.0000000   0.8218740   0.8218740   0.8218740   0.0000000   2.7928460   2.7928460   2.7928460   2.7928460   0.0000000
 AtZNuc=  50.0000000  17.0000000  17.0000000  17.0000000   6.0000000   1.0000000   1.0000000   1.0000000   1.0000000   6.0000000

  Atom        51          52          53          54          55          56          57          58          59          60
 IAtWgt=          12          12          12           1          12           1          12           1           1          16
 AtmWgt=  12.0000000  12.0000000  12.0000000   1.0078250  12.0000000   1.0078250  12.0000000   1.0078250   1.0078250  15.9949146
 NucSpn=           0           0           0           1           0           1           0           1           1           0
 AtZEff=   0.0000000   0.0000000   0.0000000   0.0000000   0.0000000   0.0000000   0.0000000   0.0000000   0.0000000   0.0000000
 NQMom=    0.0000000   0.0000000   0.0000000   0.0000000   0.0000000   0.0000000   0.0000000   0.0000000   0.0000000   0.0000000
 NMagM=    0.0000000   0.0000000   0.0000000   2.7928460   0.0000000   2.7928460   0.0000000   2.7928460   2.7928460   0.0000000
 AtZNuc=   6.0000000   6.0000000   6.0000000   1.0000000   6.0000000   1.0000000   6.0000000   1.0000000   1.0000000   8.0000000

  Atom        61          62          63          64
 IAtWgt=          12           1           1           1
 AtmWgt=  12.0000000   1.0078250   1.0078250   1.0078250
 NucSpn=           0           1           1           1
 AtZEff=   0.0000000   0.0000000   0.0000000   0.0000000
 NQMom=    0.0000000   0.0000000   0.0000000   0.0000000
 NMagM=    0.0000000   2.7928460   2.7928460   2.7928460
 AtZNuc=   6.0000000   1.0000000   1.0000000   1.0000000
 Leave Link  101 at Sun Aug 25 10:14:36 2019, MaxMem=   939524096 cpu:         0.6
 (Enter /scr/programas/g09/l202.exe)
 Stoichiometry    C19H37Cl3OP2PtSn
 Framework group  C1[X(C19H37Cl3OP2PtSn)]
 Deg. of freedom   186
 Full point group                 C1      NOp   1
 Largest Abelian subgroup         C1      NOp   1
 Largest concise Abelian subgroup C1      NOp   1
                         Standard orientation:                         
 ---------------------------------------------------------------------
 Center     Atomic      Atomic             Coordinates (Angstroms)
 Number     Number       Type             X           Y           Z
 ---------------------------------------------------------------------
      1         78           0       -0.172342   -0.020138   -0.045070
      2         15           0        0.067233    2.377470   -0.102027
      3         15           0       -0.516283   -2.387679    0.119689
      4          6           0        0.283056    2.960781    1.643932
      5          1           0        1.059039    2.302150    2.064804
      6          1           0       -0.656107    2.700249    2.158436
      7          6           0        0.654411    4.428325    1.879085
      8          1           0       -0.065320    5.125897    1.423978
      9          1           0        0.676951    4.635392    2.960951
     10          1           0        1.653804    4.662325    1.482924
     11          6           0        1.595684    2.926776   -1.021537
     12          1           0        1.733314    2.216413   -1.850427
     13          6           0       -1.309454    3.387067   -0.841926
     14          1           0       -0.856049    4.323536   -1.197508
     15          1           0       -1.638260    2.837963   -1.737755
     16          6           0       -2.506972    3.719006    0.051869
     17          1           0       -3.250933    4.284073   -0.533579
     18          1           0       -3.001272    2.820205    0.446774
     19          1           0       -2.216419    4.353800    0.903900
     20          6           0        0.338672   -3.370214   -1.198683
     21          1           0        0.099385   -4.433028   -1.030868
     22          1           0        1.420289   -3.263085   -1.009453
     23          6           0       -0.014517   -2.944847   -2.626101
     24          1           0       -1.085912   -3.079410   -2.844218
     25          1           0        0.235005   -1.884515   -2.796862
     26          1           0        0.546271   -3.547753   -3.354215
     27          6           0       -2.292029   -2.931148    0.053376
     28          1           0       -2.775240   -2.472469    0.932644
     29          1           0       -2.743719   -2.430703   -0.818575
     30          6           0       -2.545844   -4.440000    0.010553
     31          1           0       -3.627322   -4.633928    0.081550
     32          1           0       -2.192775   -4.892838   -0.929248
     33          1           0       -2.062714   -4.974683    0.843605
     34          6           0        0.129606   -3.107685    1.702722
     35          1           0       -0.186012   -4.164216    1.736647
     36          1           0        1.229789   -3.111681    1.622004
     37          6           0       -0.313802   -2.365554    2.967653
     38          1           0        0.076390   -2.879990    3.862515
     39          1           0        0.069547   -1.331486    2.977714
     40          1           0       -1.411749   -2.322591    3.065815
     41         50           0        2.546018   -0.342103   -0.044440
     42         17           0        3.867071    0.133980   -2.056704
     43         17           0        3.767915    1.058252    1.576476
     44         17           0        3.665122   -2.459609    0.506549
     45          6           0        1.683557    4.358312   -1.559603
     46          1           0        2.693972    4.527211   -1.965105
     47          1           0        0.973044    4.534572   -2.380240
     48          1           0        1.507660    5.119932   -0.787161
     49          1           0        2.421199    2.735154   -0.317047
     50          6           0       -2.211779    0.231125   -0.002031
     51          6           0       -2.919147    0.316628    1.209388
     52          6           0       -2.953217    0.287887   -1.195107
     53          6           0       -4.314219    0.443831    1.230507
     54          1           0       -2.383902    0.277361    2.162509
     55          6           0       -4.347498    0.419080   -1.185877
     56          1           0       -2.444077    0.228758   -2.161622
     57          6           0       -5.037690    0.496005    0.032352
     58          1           0       -4.857921    0.508964    2.176375
     59          1           0       -4.895047    0.473504   -2.130031
     60          8           0       -6.396878    0.675788    0.099255
     61          6           0       -7.211668   -0.269566   -0.579137
     62          1           0       -7.110799   -1.275801   -0.125057
     63          1           0       -8.252845    0.070735   -0.475775
     64          1           0       -6.973438   -0.346752   -1.655940
 ---------------------------------------------------------------------
 Rotational constants (GHZ):      0.1399743      0.0840612      0.0633080
 Leave Link  202 at Sun Aug 25 10:14:36 2019, MaxMem=   939524096 cpu:         0.0
 (Enter /scr/programas/g09/l301.exe)
 General basis read from cards:  (5D, 7F)
 Centers:       5      6      8      9     10     12     14     15     17     18
 Centers:      19     21     22     24     25     26     28     29     31     32
 Centers:      33     35     36     38     39     40     46     47     48     49
 Centers:      54     56     58     59     62     63     64
 S 5 1.00
     Exponent=  2.8295215633D+02 Coefficients=  4.3000000000D-04
     Exponent=  8.7062201949D+01 Coefficients=  5.1000000000D-04
     Exponent=  2.6788369830D+01 Coefficients=  6.1600000000D-03
     Exponent=  8.2425753324D+00 Coefficients=  1.3030000000D-02
     Exponent=  2.5361770254D+00 Coefficients=  9.9490000000D-02
 S 1 1.00
     Exponent=  7.8036216165D-01 Coefficients=  1.0000000000D+00
 S 1 1.00
     Exponent=  2.4011143435D-01 Coefficients=  1.0000000000D+00
 P 1 1.00
     Exponent=  8.8150000000D-01 Coefficients=  1.0000000000D+00
 P 1 1.00
     Exponent=  1.7989200000D-01 Coefficients=  1.0000000000D+00
 ****
 Centers:       4      7     11     13     16     20     23     27     30     34
 Centers:      37     45     50     51     52     53     55     57     61
 S 6 1.00
     Exponent=  8.8461235339D+03 Coefficients=  5.3000000000D-04
     Exponent=  2.9487078446D+03 Coefficients=  7.7000000000D-04
     Exponent=  9.8290261488D+02 Coefficients=  4.0500000000D-03
     Exponent=  3.2763420496D+02 Coefficients=  1.4030000000D-02
     Exponent=  1.0921140165D+02 Coefficients=  5.3450000000D-02
     Exponent=  3.6403800551D+01 Coefficients=  1.7027000000D-01
 S 1 1.00
     Exponent=  1.2134600184D+01 Coefficients=  1.0000000000D+00
 S 1 1.00
     Exponent=  4.0448667279D+00 Coefficients=  1.0000000000D+00
 S 1 1.00
     Exponent=  1.3482889093D+00 Coefficients=  1.0000000000D+00
 S 1 1.00
     Exponent=  4.4942963643D-01 Coefficients=  1.0000000000D+00
 S 1 1.00
     Exponent=  1.4980987881D-01 Coefficients=  1.0000000000D+00
 P 4 1.00
     Exponent=  3.7294093393D+01 Coefficients=  3.9600000000D-03
     Exponent=  1.1475105659D+01 Coefficients=  1.8890000000D-02
     Exponent=  3.5308017414D+00 Coefficients=  9.4610000000D-02
     Exponent=  1.0864005358D+00 Coefficients=  3.1889000000D-01
 P 1 1.00
     Exponent=  3.3427708794D-01 Coefficients=  1.0000000000D+00
 P 1 1.00
     Exponent=  1.0285448860D-01 Coefficients=  1.0000000000D+00
 D 1 1.00
     Exponent=  4.7750000000D-01 Coefficients=  1.0000000000D+00
 D 1 1.00
     Exponent=  1.1998000000D-01 Coefficients=  1.0000000000D+00
 ****
 Centers:      60
 S 6 1.00
     Exponent=  1.6178118231D+04 Coefficients=  6.0000000000D-04
     Exponent=  5.3927060771D+03 Coefficients=  7.8000000000D-04
     Exponent=  1.7975686924D+03 Coefficients=  4.1000000000D-03
     Exponent=  5.9918956413D+02 Coefficients=  1.3880000000D-02
     Exponent=  1.9972985471D+02 Coefficients=  5.2770000000D-02
     Exponent=  6.6576618236D+01 Coefficients=  1.6924000000D-01
 S 1 1.00
     Exponent=  2.2192206079D+01 Coefficients=  1.0000000000D+00
 S 1 1.00
     Exponent=  7.3974020263D+00 Coefficients=  1.0000000000D+00
 S 1 1.00
     Exponent=  2.4658006754D+00 Coefficients=  1.0000000000D+00
 S 1 1.00
     Exponent=  8.2193355847D-01 Coefficients=  1.0000000000D+00
 S 1 1.00
     Exponent=  2.7397785282D-01 Coefficients=  1.0000000000D+00
 P 4 1.00
     Exponent=  7.3854398670D+01 Coefficients=  4.0200000000D-03
     Exponent=  2.2724430360D+01 Coefficients=  2.0130000000D-02
     Exponent=  6.9921324184D+00 Coefficients=  1.0470000000D-01
     Exponent=  2.1514253595D+00 Coefficients=  3.3605000000D-01
 P 1 1.00
     Exponent=  6.6197703370D-01 Coefficients=  1.0000000000D+00
 P 1 1.00
     Exponent=  2.0368524114D-01 Coefficients=  1.0000000000D+00
 D 1 1.00
     Exponent=  9.2880000000D-01 Coefficients=  1.0000000000D+00
 D 1 1.00
     Exponent=  2.2975000000D-01 Coefficients=  1.0000000000D+00
 ****
 Centers:       2      3
 S 7 1.00
     Exponent=  5.9538004301D+04 Coefficients=  9.5000000000D-04
     Exponent=  2.1650183382D+04 Coefficients=  6.1000000000D-04
     Exponent=  7.8727939572D+03 Coefficients=  3.7500000000D-03
     Exponent=  2.8628341663D+03 Coefficients=  9.6300000000D-03
     Exponent=  1.0410306059D+03 Coefficients=  3.2430000000D-02
     Exponent=  3.7855658397D+02 Coefficients=  9.9500000000D-02
     Exponent=  1.3765693962D+02 Coefficients=  2.6570000000D-01
 S 1 1.00
     Exponent=  5.0057068954D+01 Coefficients=  1.0000000000D+00
 S 1 1.00
     Exponent=  1.8202570529D+01 Coefficients=  1.0000000000D+00
 S 1 1.00
     Exponent=  6.6191165560D+00 Coefficients=  1.0000000000D+00
 S 1 1.00
     Exponent=  2.4069514749D+00 Coefficients=  1.0000000000D+00
 S 1 1.00
     Exponent=  8.7525508178D-01 Coefficients=  1.0000000000D+00
 S 1 1.00
     Exponent=  3.1827457519D-01 Coefficients=  1.0000000000D+00
 S 1 1.00
     Exponent=  1.1573620916D-01 Coefficients=  1.0000000000D+00
 S 1 1.00
     Exponent=  4.2085894240D-02 Coefficients=  1.0000000000D+00
 P 5 1.00
     Exponent=  4.8799672315D+02 Coefficients=  2.1600000000D-03
     Exponent=  1.6266557438D+02 Coefficients=  9.7900000000D-03
     Exponent=  5.4221858128D+01 Coefficients=  5.4850000000D-02
     Exponent=  1.8073952709D+01 Coefficients=  2.1770000000D-01
     Exponent=  6.0246509031D+00 Coefficients=  4.8978000000D-01
 P 1 1.00
     Exponent=  2.0082169677D+00 Coefficients=  1.0000000000D+00
 P 1 1.00
     Exponent=  6.6940565590D-01 Coefficients=  1.0000000000D+00
 P 1 1.00
     Exponent=  2.2313521863D-01 Coefficients=  1.0000000000D+00
 P 1 1.00
     Exponent=  7.4378406211D-02 Coefficients=  1.0000000000D+00
 P 1 1.00
     Exponent=  2.4792802070D-02 Coefficients=  1.0000000000D+00
 D 1 1.00
     Exponent=  3.5395000000D-01 Coefficients=  1.0000000000D+00
 D 1 1.00
     Exponent=  8.9098000000D-02 Coefficients=  1.0000000000D+00
 ****
 Centers:      42     43     44
 S 7 1.00
     Exponent=  7.7142817164D+04 Coefficients=  1.0600000000D-03
     Exponent=  2.8051933514D+04 Coefficients=  6.4000000000D-04
     Exponent=  1.0200703096D+04 Coefficients=  3.9600000000D-03
     Exponent=  3.7093465804D+03 Coefficients=  9.8300000000D-03
     Exponent=  1.3488533020D+03 Coefficients=  3.2690000000D-02
     Exponent=  4.9049210981D+02 Coefficients=  9.9520000000D-02
     Exponent=  1.7836076720D+02 Coefficients=  2.6555000000D-01
 S 1 1.00
     Exponent=  6.4858460801D+01 Coefficients=  1.0000000000D+00
 S 1 1.00
     Exponent=  2.3584894837D+01 Coefficients=  1.0000000000D+00
 S 1 1.00
     Exponent=  8.5763253951D+00 Coefficients=  1.0000000000D+00
 S 1 1.00
     Exponent=  3.1186637801D+00 Coefficients=  1.0000000000D+00
 S 1 1.00
     Exponent=  1.1340595564D+00 Coefficients=  1.0000000000D+00
 S 1 1.00
     Exponent=  4.1238529323D-01 Coefficients=  1.0000000000D+00
 S 1 1.00
     Exponent=  1.4995828845D-01 Coefficients=  1.0000000000D+00
 S 1 1.00
     Exponent=  5.4530286708D-02 Coefficients=  1.0000000000D+00
 P 5 1.00
     Exponent=  6.9498536057D+02 Coefficients=  2.0000000000D-03
     Exponent=  2.3166178686D+02 Coefficients=  8.9500000000D-03
     Exponent=  7.7220595619D+01 Coefficients=  5.1130000000D-02
     Exponent=  2.5740198540D+01 Coefficients=  2.1011000000D-01
     Exponent=  8.5800661799D+00 Coefficients=  4.9738000000D-01
 P 1 1.00
     Exponent=  2.8600220600D+00 Coefficients=  1.0000000000D+00
 P 1 1.00
     Exponent=  9.5334068665D-01 Coefficients=  1.0000000000D+00
 P 1 1.00
     Exponent=  3.1778022888D-01 Coefficients=  1.0000000000D+00
 P 1 1.00
     Exponent=  1.0592674296D-01 Coefficients=  1.0000000000D+00
 P 1 1.00
     Exponent=  3.5308914320D-02 Coefficients=  1.0000000000D+00
 D 1 1.00
     Exponent=  5.5696000000D-01 Coefficients=  1.0000000000D+00
 D 1 1.00
     Exponent=  1.5619100000D-01 Coefficients=  1.0000000000D+00
 ****
 Centers:      41
 S 8 1.00
     Exponent=  7.5448214551D+05 Coefficients=  4.4300000000D-03
     Exponent=  3.3532539800D+05 Coefficients=  1.9800000000D-03
     Exponent=  1.4903351022D+05 Coefficients=  9.0500000000D-03
     Exponent=  6.6237115655D+04 Coefficients=  4.8700000000D-03
     Exponent=  2.9438718069D+04 Coefficients=  2.0770000000D-02
     Exponent=  1.3083874697D+04 Coefficients=  3.2900000000D-02
     Exponent=  5.8150554210D+03 Coefficients=  7.7010000000D-02
     Exponent=  2.5844690760D+03 Coefficients=  1.5160000000D-01
 S 1 1.00
     Exponent=  1.1486529227D+03 Coefficients=  1.0000000000D+00
 S 1 1.00
     Exponent=  5.1051241008D+02 Coefficients=  1.0000000000D+00
 S 1 1.00
     Exponent=  2.2689440448D+02 Coefficients=  1.0000000000D+00
 S 1 1.00
     Exponent=  1.0084195755D+02 Coefficients=  1.0000000000D+00
 S 1 1.00
     Exponent=  4.4818647798D+01 Coefficients=  1.0000000000D+00
 S 1 1.00
     Exponent=  1.9919399021D+01 Coefficients=  1.0000000000D+00
 S 1 1.00
     Exponent=  8.8530662317D+00 Coefficients=  1.0000000000D+00
 S 1 1.00
     Exponent=  3.9346961030D+00 Coefficients=  1.0000000000D+00
 S 1 1.00
     Exponent=  1.7487538235D+00 Coefficients=  1.0000000000D+00
 S 1 1.00
     Exponent=  7.7722392158D-01 Coefficients=  1.0000000000D+00
 S 1 1.00
     Exponent=  3.4543285403D-01 Coefficients=  1.0000000000D+00
 S 1 1.00
     Exponent=  1.5352571290D-01 Coefficients=  1.0000000000D+00
 S 1 1.00
     Exponent=  6.8233650180D-02 Coefficients=  1.0000000000D+00
 S 1 1.00
     Exponent=  1.3478251887D-02 Coefficients=  1.0000000000D+00
 P 5 1.00
     Exponent=  1.0090658304D+04 Coefficients=  2.7500000000D-03
     Exponent=  4.0362633217D+03 Coefficients=  4.1800000000D-03
     Exponent=  1.6145053287D+03 Coefficients=  2.0890000000D-02
     Exponent=  6.4580213147D+02 Coefficients=  7.1370000000D-02
     Exponent=  2.5832085259D+02 Coefficients=  2.2613000000D-01
 P 1 1.00
     Exponent=  1.0332834104D+02 Coefficients=  1.0000000000D+00
 P 1 1.00
     Exponent=  4.1331336414D+01 Coefficients=  1.0000000000D+00
 P 1 1.00
     Exponent=  1.6532534566D+01 Coefficients=  1.0000000000D+00
 P 1 1.00
     Exponent=  6.6130138263D+00 Coefficients=  1.0000000000D+00
 P 1 1.00
     Exponent=  2.6452055305D+00 Coefficients=  1.0000000000D+00
 P 1 1.00
     Exponent=  1.0580822122D+00 Coefficients=  1.0000000000D+00
 P 1 1.00
     Exponent=  4.2323288488D-01 Coefficients=  1.0000000000D+00
 P 1 1.00
     Exponent=  1.6929315395D-01 Coefficients=  1.0000000000D+00
 P 1 1.00
     Exponent=  6.7717261581D-02 Coefficients=  1.0000000000D+00
 P 1 1.00
     Exponent=  2.7086904632D-02 Coefficients=  1.0000000000D+00
 P 1 1.00
     Exponent=  1.0834761853D-02 Coefficients=  1.0000000000D+00
 D 4 1.00
     Exponent=  5.5430250651D+02 Coefficients=  4.3700000000D-03
     Exponent=  2.0156454782D+02 Coefficients=  2.5110000000D-02
     Exponent=  7.3296199207D+01 Coefficients=  1.3316000000D-01
     Exponent=  2.6653163348D+01 Coefficients=  3.8900000000D-01
 D 1 1.00
     Exponent=  9.6920593993D+00 Coefficients=  1.0000000000D+00
 D 1 1.00
     Exponent=  3.5243852361D+00 Coefficients=  1.0000000000D+00
 D 1 1.00
     Exponent=  1.2815946313D+00 Coefficients=  1.0000000000D+00
 D 1 1.00
     Exponent=  4.6603441139D-01 Coefficients=  1.0000000000D+00
 D 1 1.00
     Exponent=  1.6946705869D-01 Coefficients=  1.0000000000D+00
 F 1 1.00
     Exponent=  1.3140000000D+00 Coefficients=  1.0000000000D+00
 F 1 1.00
     Exponent=  1.9993000000D-01 Coefficients=  1.0000000000D+00
 ****
 Centers:       1
 S 9 1.00
     Exponent=  2.1644816090D+06 Coefficients=  1.2320000000D-02
     Exponent=  1.0822408045D+06 Coefficients=  1.2970000000D-02
     Exponent=  5.4112040224D+05 Coefficients=  2.6370000000D-02
     Exponent=  2.7056020112D+05 Coefficients=  9.0400000000D-03
     Exponent=  1.3528010056D+05 Coefficients=  3.4980000000D-02
     Exponent=  6.7640050280D+04 Coefficients=  1.2220000000D-02
     Exponent=  3.3820025140D+04 Coefficients=  6.0520000000D-02
     Exponent=  1.6910012570D+04 Coefficients=  6.4930000000D-02
     Exponent=  8.4550062850D+03 Coefficients=  1.3819000000D-01
 S 1 1.00
     Exponent=  4.2275031425D+03 Coefficients=  1.0000000000D+00
 S 1 1.00
     Exponent=  2.1137515713D+03 Coefficients=  1.0000000000D+00
 S 1 1.00
     Exponent=  1.0568757856D+03 Coefficients=  1.0000000000D+00
 S 1 1.00
     Exponent=  5.2843789281D+02 Coefficients=  1.0000000000D+00
 S 1 1.00
     Exponent=  2.6421894641D+02 Coefficients=  1.0000000000D+00
 S 1 1.00
     Exponent=  1.3210947320D+02 Coefficients=  1.0000000000D+00
 S 1 1.00
     Exponent=  6.6054736602D+01 Coefficients=  1.0000000000D+00
 S 1 1.00
     Exponent=  3.3027368301D+01 Coefficients=  1.0000000000D+00
 S 1 1.00
     Exponent=  1.6513684150D+01 Coefficients=  1.0000000000D+00
 S 1 1.00
     Exponent=  8.2568420752D+00 Coefficients=  1.0000000000D+00
 S 1 1.00
     Exponent=  4.1284210376D+00 Coefficients=  1.0000000000D+00
 S 1 1.00
     Exponent=  2.0642105188D+00 Coefficients=  1.0000000000D+00
 S 1 1.00
     Exponent=  1.0321052594D+00 Coefficients=  1.0000000000D+00
 S 1 1.00
     Exponent=  5.1605262970D-01 Coefficients=  1.0000000000D+00
 S 1 1.00
     Exponent=  2.5802631485D-01 Coefficients=  1.0000000000D+00
 S 1 1.00
     Exponent=  1.2901315743D-01 Coefficients=  1.0000000000D+00
 S 1 1.00
     Exponent=  6.4506578713D-02 Coefficients=  1.0000000000D+00
 P 7 1.00
     Exponent=  3.2357915258D+04 Coefficients=  5.0200000000D-03
     Exponent=  1.4381295670D+04 Coefficients=  2.0200000000D-03
     Exponent=  6.3916869645D+03 Coefficients=  1.8070000000D-02
     Exponent=  2.8407497620D+03 Coefficients=  3.6620000000D-02
     Exponent=  1.2625554498D+03 Coefficients=  1.1172000000D-01
     Exponent=  5.6113575545D+02 Coefficients=  2.5586000000D-01
     Exponent=  2.4939366909D+02 Coefficients=  4.2608000000D-01
 P 1 1.00
     Exponent=  1.1084163071D+02 Coefficients=  1.0000000000D+00
 P 1 1.00
     Exponent=  4.9262946981D+01 Coefficients=  1.0000000000D+00
 P 1 1.00
     Exponent=  2.1894643103D+01 Coefficients=  1.0000000000D+00
 P 1 1.00
     Exponent=  9.7309524900D+00 Coefficients=  1.0000000000D+00
 P 1 1.00
     Exponent=  4.3248677733D+00 Coefficients=  1.0000000000D+00
 P 1 1.00
     Exponent=  1.9221634548D+00 Coefficients=  1.0000000000D+00
 P 1 1.00
     Exponent=  8.5429486881D-01 Coefficients=  1.0000000000D+00
 P 1 1.00
     Exponent=  3.7968660836D-01 Coefficients=  1.0000000000D+00
 P 1 1.00
     Exponent=  1.6874960372D-01 Coefficients=  1.0000000000D+00
 P 1 1.00
     Exponent=  7.4999823874D-02 Coefficients=  1.0000000000D+00
 P 1 1.00
     Exponent=  3.3333255055D-02 Coefficients=  1.0000000000D+00
 D 5 1.00
     Exponent=  1.9119003508D+03 Coefficients=  4.3300000000D-03
     Exponent=  7.6476014031D+02 Coefficients=  1.7780000000D-02
     Exponent=  3.0590405613D+02 Coefficients=  8.9710000000D-02
     Exponent=  1.2236162245D+02 Coefficients=  3.1123000000D-01
     Exponent=  4.8944648980D+01 Coefficients=  5.3206000000D-01
 D 1 1.00
     Exponent=  1.9577859592D+01 Coefficients=  1.0000000000D+00
 D 1 1.00
     Exponent=  7.8311438368D+00 Coefficients=  1.0000000000D+00
 D 1 1.00
     Exponent=  3.1324575347D+00 Coefficients=  1.0000000000D+00
 D 1 1.00
     Exponent=  1.2529830139D+00 Coefficients=  1.0000000000D+00
 D 1 1.00
     Exponent=  5.0119320556D-01 Coefficients=  1.0000000000D+00
 D 1 1.00
     Exponent=  2.0047728222D-01 Coefficients=  1.0000000000D+00
 D 1 1.00
     Exponent=  8.0190912889D-02 Coefficients=  1.0000000000D+00
 D 1 1.00
     Exponent=  3.2076365156D-02 Coefficients=  1.0000000000D+00
 F 4 1.00
     Exponent=  8.2289680979D+01 Coefficients=  6.1870000000D-02
     Exponent=  2.9923520356D+01 Coefficients=  2.4823000000D-01
     Exponent=  1.0881280130D+01 Coefficients=  4.9956000000D-01
     Exponent=  3.9568291380D+00 Coefficients=  4.0380000000D-01
 F 1 1.00
     Exponent=  1.4388469593D+00 Coefficients=  1.0000000000D+00
 F 1 1.00
     Exponent=  5.2321707610D-01 Coefficients=  1.0000000000D+00
 G 1 1.00
     Exponent=  2.6700000000D+00 Coefficients=  1.0000000000D+00
 G 1 1.00
     Exponent=  9.0960000000D-01 Coefficients=  1.0000000000D+00
 ****
 Ernie: Thresh=  0.10000D-02 Tol=  0.10000D-05 Strict=F.
 There are  1343 symmetry adapted cartesian basis functions of A   symmetry.
 There are  1251 symmetry adapted basis functions of A   symmetry.
  1251 basis functions,  1978 primitive gaussians,  1343 cartesian basis functions
   184 alpha electrons      184 beta electrons
       nuclear repulsion energy      8064.2338465257 Hartrees.
 IExCor= 1009 DFT=T Ex=PBE Corr=PBE ExCW=0 ScaHFX=  0.000000
 ScaDFX=  1.000000  1.000000  1.000000  1.000000 ScalE2=  1.000000  1.000000
 IRadAn=      0 IRanWt=     -1 IRanGd=            0 ICorTp=0 IEmpDi=  4
 NAtoms=   64 NActive=   64 NUniq=   64 SFac= 1.00D+00 NAtFMM=   60 NAOKFM=T Big=T
 Integral buffers will be    131072 words long.
 Raffenetti 2 integral format.
 Two-electron integral symmetry is turned on.
 ------------------------------------------------------------------------------
 Polarizable Continuum Model (PCM)
 =================================
 Model                : PCM (using non-symmetric T matrix).
 Atomic radii         : UFF (Universal Force Field).
 Polarization charges : Total charges.
 Charge compensation  : None.
 Solution method      : On-the-fly selection.
 Cavity type          : Scaled VdW (van der Waals Surface) (Alpha=1.100).
 Cavity algorithm     : GePol (No added spheres)
                        Default sphere list used, NSphG=   64.
                        Lebedev-Laikov grids with approx.  5.0 points / Ang**2.
                        Smoothing algorithm: Karplus/York (Gamma=1.0000).
                        Polarization charges: spherical gaussians, with
                                              point-specific exponents (IZeta= 3).
                        Self-potential: point-specific (ISelfS= 7).
                        Self-field    : sphere-specific E.n sum rule (ISelfD= 2).
 Solvent              : Dichloromethane, Eps=   8.930000 Eps(inf)=   2.028346
 ------------------------------------------------------------------------------
 GePol: Number of generator spheres                  =      64
 GePol: Total number of spheres                      =      64
 GePol: Number of exposed spheres                    =      64 (100.00%)
 GePol: Number of points                             =    4466
 GePol: Average weight of points                     =       0.13
 GePol: Minimum weight of points                     =   0.74D-11
 GePol: Maximum weight of points                     =    0.21838
 GePol: Number of points with low weight             =     313
 GePol: Fraction of low-weight points (<1% of avg)   =       7.01%
 GePol: Cavity surface area                          =    596.061 Ang**2
 GePol: Cavity volume                                =    706.862 Ang**3
 Leave Link  301 at Sun Aug 25 10:14:36 2019, MaxMem=   939524096 cpu:         1.0
 (Enter /scr/programas/g09/l302.exe)
 NPDir=0 NMtPBC=     1 NCelOv=     1 NCel=       1 NClECP=     1 NCelD=      1
         NCelK=      1 NCelE2=     1 NClLst=     1 CellRange=     0.0.
 One-electron integrals computed using PRISM.
 NBasis=  1251 RedAO= T EigKep=  1.50D-06  NBF=  1251
 NBsUse=  1251 1.00D-06 EigRej= -1.00D+00 NBFU=  1251
 Precomputing XC quadrature grid using
 IXCGrd= 4 IRadAn=           0 IRanWt=          -1 IRanGd=           0 AccXCQ= 0.00D+00.
 Defaulting to unpruned grid for atomic number  78.
 Defaulting to unpruned grid for atomic number  50.
 Generated NRdTot=       0 NPtTot=           0 NUsed=           0 NTot=          32
 NSgBfM=  1175  1179  1179  1179  1180 MxSgAt=    64 MxSgA2=    64.
 Leave Link  302 at Sun Aug 25 10:14:44 2019, MaxMem=   939524096 cpu:        34.6
 (Enter /scr/programas/g09/l308.exe)
 Leave Link  308 at Sun Aug 25 10:14:45 2019, MaxMem=   939524096 cpu:         3.0
 (Enter /scr/programas/g09/l303.exe)
 DipDrv:  MaxL=1.
 Leave Link  303 at Sun Aug 25 10:14:46 2019, MaxMem=   939524096 cpu:         2.0
 (Enter /scr/programas/g09/l401.exe)
 ExpMin= 1.08D-02 ExpMax= 2.16D+06 ExpMxC= 2.16D+06 IAcc=4 IRadAn=    199590 AccDes= 0.00D+00
 Harris functional with IExCor= 1009 and IRadAn=  199590 diagonalized for initial guess.
 HarFok:  IExCor= 1009 AccDes= 0.00D+00 IRadAn=    199590 IDoV= 1 UseB2=F ITyADJ=14
 ICtDFT=  3500011 ScaDFX=  1.000000  1.000000  1.000000  1.000000
 FoFCou: FMM=F IPFlag=           0 FMFlag=      100000 FMFlg1=        2001
         NFxFlg=           0 DoJE=T BraDBF=F KetDBF=T FulRan=T
         wScrn=  0.000000 ICntrl=     500 IOpCl=  0 I1Cent=   200000004 NGrid=           0
         NMat0=    1 NMatS0=      1 NMatT0=    0 NMatD0=    1 NMtDS0=    0 NMtDT0=    0
 Petite list used in FoFCou.
 Harris En= -25988.7415789179    
 JPrj=0 DoOrth=F DoCkMO=F.
 Leave Link  401 at Sun Aug 25 10:20:50 2019, MaxMem=   939524096 cpu:      1446.9
 (Enter /scr/programas/g09/l502.exe)
 Closed shell SCF:
 Using DIIS extrapolation, IDIIS=  1040.
 Integral symmetry usage will be decided dynamically.
 IVT=     5683037 IEndB=     5683037 NGot=   939524096 MDV=   935897052
 LenX=   935897052 LenY=   934092060
 Requested convergence on RMS density matrix=1.00D-04 within 500 cycles.
 Requested convergence on MAX density matrix=1.00D-02.
 Requested convergence on             energy=1.00D-02.
 No special actions if energy rises.
 Fock matrices will be formed incrementally for  20 cycles.

 Cycle   1  Pass 1  IDiag  1:
 FoFJK:  IHMeth= 1 ICntrl=     500 DoSepK=F KAlg= 0 I1Cent=   0 FoldK=F
 IRaf= 720000000 NMat=   1 IRICut=       1 DoRegI=T DoRafI=F ISym2E= 0.
 FoFCou: FMM=T IPFlag=           0 FMFlag=      100000 FMFlg1=        2001
         NFxFlg=           0 DoJE=T BraDBF=F KetDBF=F FulRan=T
         wScrn=  0.000000 ICntrl=     500 IOpCl=  0 I1Cent=           0 NGrid=           0
         NMat0=    1 NMatS0=      1 NMatT0=    0 NMatD0=    1 NMtDS0=    0 NMtDT0=    0
 Symmetry not used in FoFCou.
 FMM levels:  10  Number of levels for PrismC:   9
 Defaulting to unpruned grid for atomic number  78.
 Defaulting to unpruned grid for atomic number  78.
 Defaulting to unpruned grid for atomic number  78.
 Defaulting to unpruned grid for atomic number  78.
 Inv3:  Mode=1 IEnd=    59835468.
 Iteration    1 A*A^-1 deviation from unit magnitude is 1.07D-14 for   3878.
 Iteration    1 A*A^-1 deviation from orthogonality  is 6.86D-15 for   3042    552.
 Iteration    1 A^-1*A deviation from unit magnitude is 1.18D-14 for   2698.
 Iteration    1 A^-1*A deviation from orthogonality  is 4.88D-09 for   3425   3359.
 Iteration    2 A*A^-1 deviation from unit magnitude is 1.13D-14 for   1892.
 Iteration    2 A*A^-1 deviation from orthogonality  is 1.02D-14 for   3470   2235.
 Iteration    2 A^-1*A deviation from unit magnitude is 2.22D-15 for   3934.
 Iteration    2 A^-1*A deviation from orthogonality  is 8.30D-16 for   2492    279.
 E= -25969.2831265954    
 DIIS: error= 2.37D-01 at cycle   1 NSaved=   1.
 NSaved= 1 IEnMin= 1 EnMin= -25969.2831265954     IErMin= 1 ErrMin= 2.37D-01
 ErrMax= 2.37D-01  0.00D+00 EMaxC= 1.00D-01 BMatC= 3.34D+02 BMatP= 3.34D+02
 IDIUse=3 WtCom= 0.00D+00 WtEn= 1.00D+00
 Coeff-Com:  0.100D+01
 Coeff-En:   0.100D+01
 Coeff:      0.100D+01
 Gap=     0.814 Goal=   None    Shift=    0.000
 GapD=    0.814 DampG=2.000 DampE=0.125 DampFc=0.2500 IDamp=-1.
 Damping current iteration by 2.50D-01
 RMSDP=1.21D-02 MaxDP=2.05D+00              OVMax= 7.77D-01

 Cycle   2  Pass 1  IDiag  1:
 RMSU=  2.81D-03    CP:  1.09D+00
 E= -25970.9206028368     Delta-E=       -1.637476241442 Rises=F Damp=T
 DIIS: error= 1.66D-01 at cycle   2 NSaved=   2.
 NSaved= 2 IEnMin= 2 EnMin= -25970.9206028368     IErMin= 2 ErrMin= 1.66D-01
 ErrMax= 1.66D-01  0.00D+00 EMaxC= 1.00D-01 BMatC= 1.61D+02 BMatP= 3.34D+02
 IDIUse=3 WtCom= 0.00D+00 WtEn= 1.00D+00
 Coeff-Com: -0.201D+01 0.301D+01
 Coeff-En:   0.514D-02 0.995D+00
 Coeff:      0.514D-02 0.995D+00
 Gap=    -0.072 Goal=   None    Shift=    0.000
 RMSDP=3.46D-03 MaxDP=5.35D-01 DE=-1.64D+00 OVMax= 8.45D-01

 Cycle   3  Pass 1  IDiag  1:
 RMSU=  2.77D-03    CP:  9.71D-01  4.71D-01
 E= -25972.8973435451     Delta-E=       -1.976740708320 Rises=F Damp=F
 DIIS: error= 4.43D-02 at cycle   3 NSaved=   3.
 NSaved= 3 IEnMin= 3 EnMin= -25972.8973435451     IErMin= 3 ErrMin= 4.43D-02
 ErrMax= 4.43D-02  0.00D+00 EMaxC= 1.00D-01 BMatC= 9.85D+00 BMatP= 1.61D+02
 IDIUse=3 WtCom= 5.57D-01 WtEn= 4.43D-01
 EnCoef did   100 forward-backward iterations
 Coeff-Com:  0.904D+00-0.110D+01 0.119D+01
 Coeff-En:   0.212D+00 0.375D-02 0.784D+00
 Coeff:      0.597D+00-0.610D+00 0.101D+01
 Gap=     0.524 Goal=   None    Shift=    0.000
 RMSDP=1.68D-02 MaxDP=2.90D+00 DE=-1.98D+00 OVMax= 9.06D-01

 Cycle   4  Pass 1  IDiag  1:
 RMSU=  1.13D-02    CP:  1.50D+00  3.00D+00 -1.26D+00
 E= -25948.6815207768     Delta-E=       24.215822768288 Rises=F Damp=F
 DIIS: error= 9.82D-02 at cycle   4 NSaved=   4.
 NSaved= 4 IEnMin= 3 EnMin= -25972.8973435451     IErMin= 3 ErrMin= 4.43D-02
 ErrMax= 9.82D-02  0.00D+00 EMaxC= 1.00D-01 BMatC= 1.55D+01 BMatP= 9.85D+00
 IDIUse=2 WtCom= 0.00D+00 WtEn= 1.00D+00
 EnCoef did     5 forward-backward iterations
 Coeff-En:   0.192D+00 0.000D+00 0.773D+00 0.352D-01
 Coeff:      0.192D+00 0.000D+00 0.773D+00 0.352D-01
 Gap=     0.215 Goal=   None    Shift=    0.000
 RMSDP=1.47D-02 MaxDP=2.44D+00 DE= 2.42D+01 OVMax= 9.04D-01

 Cycle   5  Pass 1  IDiag  1:
 RMSU=  4.08D-03    CP:  1.06D+00  8.80D-01  9.72D-02  1.17D-01
 E= -25966.6292221042     Delta-E=      -17.947701327364 Rises=F Damp=F
 DIIS: error= 5.27D-02 at cycle   5 NSaved=   5.
 NSaved= 5 IEnMin= 3 EnMin= -25972.8973435451     IErMin= 3 ErrMin= 4.43D-02
 ErrMax= 5.27D-02  0.00D+00 EMaxC= 1.00D-01 BMatC= 9.79D+00 BMatP= 9.85D+00
 IDIUse=3 WtCom= 4.73D-01 WtEn= 5.27D-01
 EnCoef did   100 forward-backward iterations
 Coeff-Com:  0.410D+00-0.487D+00 0.716D+00 0.149D+00 0.212D+00
 Coeff-En:   0.000D+00 0.000D+00 0.761D+00 0.279D-02 0.236D+00
 Coeff:      0.194D+00-0.230D+00 0.740D+00 0.719D-01 0.225D+00
 Gap=    -0.223 Goal=   None    Shift=    0.000
 RMSDP=4.53D-03 MaxDP=6.95D-01 DE=-1.79D+01 OVMax= 5.69D-01

 Cycle   6  Pass 1  IDiag  1:
 RMSU=  1.48D-03    CP:  1.01D+00  5.38D-01  5.05D-01  1.04D-02  7.45D-02
 E= -25973.9832384171     Delta-E=       -7.354016312871 Rises=F Damp=F
 DIIS: error= 1.02D-02 at cycle   6 NSaved=   6.
 NSaved= 6 IEnMin= 6 EnMin= -25973.9832384171     IErMin= 6 ErrMin= 1.02D-02
 ErrMax= 1.02D-02  0.00D+00 EMaxC= 1.00D-01 BMatC= 8.17D-01 BMatP= 9.79D+00
 IDIUse=3 WtCom= 8.98D-01 WtEn= 1.02D-01
 EnCoef did     6 forward-backward iterations
 Coeff-Com:  0.107D+00-0.127D+00 0.298D+00 0.437D-01 0.126D+00 0.552D+00
 Coeff-En:   0.000D+00 0.000D+00 0.609D-01 0.000D+00 0.113D+00 0.827D+00
 Coeff:      0.964D-01-0.114D+00 0.274D+00 0.393D-01 0.125D+00 0.580D+00
 Gap=     0.235 Goal=   None    Shift=    0.000
 RMSDP=1.96D-03 MaxDP=2.46D-01 DE=-7.35D+00 OVMax= 3.48D-01

 Cycle   7  Pass 1  IDiag  1:
 RMSU=  1.14D-03    CP:  9.86D-01  3.62D-01  6.03D-01  3.18D-02  1.63D-01
                    CP:  4.89D-02
 E= -25974.1514820643     Delta-E=       -0.168243647277 Rises=F Damp=F
 DIIS: error= 1.19D-02 at cycle   7 NSaved=   7.
 NSaved= 7 IEnMin= 7 EnMin= -25974.1514820643     IErMin= 6 ErrMin= 1.02D-02
 ErrMax= 1.19D-02  0.00D+00 EMaxC= 1.00D-01 BMatC= 3.62D-01 BMatP= 8.17D-01
 IDIUse=3 WtCom= 8.98D-01 WtEn= 1.02D-01
 Coeff-Com: -0.313D-01 0.449D-01 0.753D-01 0.106D-01 0.370D-01 0.388D+00
 Coeff-Com:  0.476D+00
 Coeff-En:   0.000D+00 0.000D+00 0.000D+00 0.000D+00 0.000D+00 0.428D+00
 Coeff-En:   0.572D+00
 Coeff:     -0.281D-01 0.403D-01 0.676D-01 0.950D-02 0.332D-01 0.392D+00
 Coeff:      0.486D+00
 Gap=     0.124 Goal=   None    Shift=    0.000
 RMSDP=1.73D-03 MaxDP=2.25D-01 DE=-1.68D-01 OVMax= 2.58D-01

 Cycle   8  Pass 1  IDiag  1:
 RMSU=  1.01D-03    CP:  1.02D+00  5.12D-01  4.90D-01  4.26D-02  2.38D-01
                    CP:  5.00D-01  1.43D-01
 E= -25974.3397451449     Delta-E=       -0.188263080548 Rises=F Damp=F
 DIIS: error= 8.66D-03 at cycle   8 NSaved=   8.
 NSaved= 8 IEnMin= 8 EnMin= -25974.3397451449     IErMin= 8 ErrMin= 8.66D-03
 ErrMax= 8.66D-03  0.00D+00 EMaxC= 1.00D-01 BMatC= 1.93D-01 BMatP= 3.62D-01
 IDIUse=3 WtCom= 9.13D-01 WtEn= 8.66D-02
 EnCoef did     7 forward-backward iterations
 Coeff-Com: -0.609D-01 0.821D-01 0.531D-02 0.397D-02-0.227D-02 0.217D+00
 Coeff-Com:  0.393D+00 0.362D+00
 Coeff-En:   0.000D+00 0.000D+00 0.000D+00 0.000D+00 0.000D+00 0.127D+00
 Coeff-En:   0.363D+00 0.510D+00
 Coeff:     -0.557D-01 0.750D-01 0.485D-02 0.363D-02-0.207D-02 0.209D+00
 Coeff:      0.390D+00 0.375D+00
 Gap=     0.125 Goal=   None    Shift=    0.000
 RMSDP=1.03D-03 MaxDP=1.54D-01 DE=-1.88D-01 OVMax= 1.66D-01

 Cycle   9  Pass 1  IDiag  1:
 RMSU=  2.84D-04    CP:  9.93D-01  4.04D-01  5.65D-01  3.70D-02  2.01D-01
                    CP:  4.07D-01  5.82D-01  3.45D-01
 E= -25974.5172495113     Delta-E=       -0.177504366395 Rises=F Damp=F
 DIIS: error= 1.20D-03 at cycle   9 NSaved=   9.
 NSaved= 9 IEnMin= 9 EnMin= -25974.5172495113     IErMin= 9 ErrMin= 1.20D-03
 ErrMax= 1.20D-03  0.00D+00 EMaxC= 1.00D-01 BMatC= 6.71D-03 BMatP= 1.93D-01
 IDIUse=3 WtCom= 9.88D-01 WtEn= 1.20D-02
 Coeff-Com: -0.293D-01 0.391D-01-0.804D-02 0.434D-03-0.133D-02 0.667D-01
 Coeff-Com:  0.119D+00 0.190D+00 0.623D+00
 Coeff-En:   0.000D+00 0.000D+00 0.000D+00 0.000D+00 0.000D+00 0.000D+00
 Coeff-En:   0.000D+00 0.427D-02 0.996D+00
 Coeff:     -0.289D-01 0.386D-01-0.794D-02 0.429D-03-0.132D-02 0.659D-01
 Coeff:      0.118D+00 0.188D+00 0.627D+00
 Gap=     0.120 Goal=   None    Shift=    0.000
 RMSDP=2.83D-04 MaxDP=5.01D-02 DE=-1.78D-01 OVMax= 2.88D-02

 Cycle  10  Pass 1  IDiag  1:
 RMSU=  1.31D-04    CP:  1.00D+00  4.52D-01  5.56D-01  3.92D-02  2.03D-01
                    CP:  4.43D-01  5.10D-01  4.59D-01  6.95D-01
 E= -25974.5214901209     Delta-E=       -0.004240609560 Rises=F Damp=F
 DIIS: error= 6.34D-04 at cycle  10 NSaved=  10.
 NSaved=10 IEnMin=10 EnMin= -25974.5214901209     IErMin=10 ErrMin= 6.34D-04
 ErrMax= 6.34D-04  0.00D+00 EMaxC= 1.00D-01 BMatC= 1.72D-03 BMatP= 6.71D-03
 IDIUse=3 WtCom= 9.94D-01 WtEn= 6.34D-03
 Coeff-Com: -0.796D-02 0.104D-01-0.671D-02 0.724D-03 0.136D-02 0.184D-02
 Coeff-Com:  0.648D-02 0.495D-01 0.385D+00 0.559D+00
 Coeff-En:   0.000D+00 0.000D+00 0.000D+00 0.000D+00 0.000D+00 0.000D+00
 Coeff-En:   0.000D+00 0.000D+00 0.241D+00 0.759D+00
 Coeff:     -0.791D-02 0.103D-01-0.667D-02 0.719D-03 0.136D-02 0.183D-02
 Coeff:      0.644D-02 0.492D-01 0.384D+00 0.560D+00
 Gap=     0.117 Goal=   None    Shift=    0.000
 RMSDP=7.92D-05 MaxDP=1.45D-02 DE=-4.24D-03 OVMax= 8.30D-03

 Cycle  11  Pass 1  IDiag  1:
 RMSU=  3.15D-05    CP:  1.00D+00  4.41D-01  5.52D-01  3.94D-02  2.06D-01
                    CP:  4.45D-01  5.28D-01  4.34D-01  8.13D-01  7.11D-01
 E= -25974.5230701674     Delta-E=       -0.001580046592 Rises=F Damp=F
 DIIS: error= 2.40D-04 at cycle  11 NSaved=  11.
 NSaved=11 IEnMin=11 EnMin= -25974.5230701674     IErMin=11 ErrMin= 2.40D-04
 ErrMax= 2.40D-04  0.00D+00 EMaxC= 1.00D-01 BMatC= 2.05D-04 BMatP= 1.72D-03
 IDIUse=3 WtCom= 9.98D-01 WtEn= 2.40D-03
 Coeff-Com: -0.376D-02 0.481D-02-0.497D-02 0.336D-03 0.121D-02-0.508D-02
 Coeff-Com:  0.804D-03 0.222D-01 0.176D+00 0.289D+00 0.519D+00
 Coeff-En:   0.000D+00 0.000D+00 0.000D+00 0.000D+00 0.000D+00 0.000D+00
 Coeff-En:   0.000D+00 0.000D+00 0.000D+00 0.000D+00 0.100D+01
 Coeff:     -0.375D-02 0.480D-02-0.496D-02 0.335D-03 0.120D-02-0.506D-02
 Coeff:      0.802D-03 0.222D-01 0.176D+00 0.288D+00 0.520D+00
 Gap=     0.116 Goal=   None    Shift=    0.000
 RMSDP=3.24D-05 MaxDP=4.26D-03 DE=-1.58D-03 OVMax= 2.04D-03

 Error on total polarization charges =  0.02391
 SCF Done:  E(RPBE-PBE) =  -25974.5230702     A.U. after   11 cycles
            NFock= 11  Conv=0.32D-04     -V/T= 2.0158
 KE= 2.557101401584D+04 PE=-7.759004193835D+04 EE= 1.798027100582D+04
 Leave Link  502 at Sun Aug 25 11:53:05 2019, MaxMem=   939524096 cpu:     22028.7
 (Enter /scr/programas/g09/l801.exe)
 Range of M.O.s used for correlation:     1  1251
 NBasis=  1251 NAE=   184 NBE=   184 NFC=     0 NFV=     0
 NROrb=   1251 NOA=   184 NOB=   184 NVA=  1067 NVB=  1067

 **** Warning!!: The largest alpha MO coefficient is  0.79393964D+02

 Leave Link  801 at Sun Aug 25 11:53:05 2019, MaxMem=   939524096 cpu:         0.2
 (Enter /scr/programas/g09/l1002.exe)
 Minotr:  Closed shell wavefunction.
 NEqPCM:  Using equilibrium solvation (IEInf=0, Eps=   8.9300, EpsInf=   2.0283)
          Direct CPHF calculation.
          Differentiating once with respect to magnetic field using GIAOs.
          Electric field/nuclear overlap derivatives assumed to be zero.
          Requested convergence is 1.0D-08 RMS, and 1.0D-07 maximum.
          Secondary convergence is 1.0D-12 RMS, and 1.0D-12 maximum.
          NewPWx=T KeepS1=F KeepF1=F KeepIn=T MapXYZ=F SortEE=F KeepMc=T.
          MDV=     939522329 using IRadAn=       2.
 Defaulting to unpruned grid for atomic number  78.
 Defaulting to unpruned grid for atomic number  50.
 Generate precomputed XC quadrature information.
          Solving linear equations simultaneously, MaxMat=      72.
 FoFJK:  IHMeth= 1 ICntrl=    6127 DoSepK=F KAlg= 0 I1Cent=   0 FoldK=F
 IRaf=         1 NMat=   1 IRICut=       1 DoRegI=T DoRafI=F ISym2E= 0.
 Defaulting to unpruned grid for atomic number  78.
 Defaulting to unpruned grid for atomic number  78.
 Defaulting to unpruned grid for atomic number  78.
 Defaulting to unpruned grid for atomic number  78.
          There are     3 degrees of freedom in the 1st order CPHF.  IDoFFX=0 NUNeed=     3.
      3 vectors produced by pass  0 Test12= 6.54D-12 3.33D-08 XBig12= 4.18D+02 3.15D+00.
 AX will form     3 AO Fock derivatives at one time.
 InvSVY:  IOpt=1 It=  1 EMax= 0.00D+00
 Solved reduced A of dimension     3 with     3 vectors.
 Calculating GIAO nuclear magnetic shielding tensors.
 SCF GIAO Magnetic shielding tensor (ppm):
      1  Pt   Isotropic =  3013.5858   Anisotropy =  1112.6914
   XX=  3748.8201   YX=    10.2933   ZX=  -144.9501
   XY=     6.0165   YY=  3522.3114   ZY=  -116.0024
   XZ=   -67.8918   YZ=  -100.2771   ZZ=  1769.6258
   Eigenvalues:  1757.3661  3528.0111  3755.3801
      2  P    Isotropic =   291.6476   Anisotropy =    26.5141
   XX=   300.3028   YX=    -8.5435   ZX=     5.7430
   XY=     8.1175   YY=   300.6099   ZY=    13.9455
   XZ=    13.4594   YZ=    16.0625   ZZ=   274.0300
   Eigenvalues:   265.0382   300.5810   309.3237
      3  P    Isotropic =   270.6413   Anisotropy =    56.3447
   XX=   236.0530   YX=    11.0859   ZX=   -10.6720
   XY=    -8.2261   YY=   307.9882   ZY=    -3.3701
   XZ=    -1.0655   YZ=    -1.8696   ZZ=   267.8827
   Eigenvalues:   234.9931   268.7264   308.2045
      4  C    Isotropic =   157.8519   Anisotropy =    32.2742
   XX=   145.1510   YX=     5.7281   ZX=     3.4526
   XY=     0.9342   YY=   169.8804   ZY=    14.2510
   XZ=     2.0401   YZ=    12.7082   ZZ=   158.5243
   Eigenvalues:   144.5730   149.6146   179.3680
      5  H    Isotropic =    28.7651   Anisotropy =     7.1474
   XX=    26.7242   YX=    -3.0227   ZX=     3.1685
   XY=    -3.7500   YY=    31.7991   ZY=     1.7834
   XZ=     3.5505   YZ=     2.4287   ZZ=    27.7722
   Eigenvalues:    22.2187    30.5467    33.5300
      6  H    Isotropic =    29.2142   Anisotropy =     5.4933
   XX=    28.6390   YX=     1.3760   ZX=    -3.2581
   XY=     3.5440   YY=    28.8616   ZY=     2.6180
   XZ=    -3.3914   YZ=     2.3833   ZZ=    30.1419
   Eigenvalues:    23.6470    31.1191    32.8764
      7  C    Isotropic =   172.2463   Anisotropy =    19.8672
   XX=   165.9680   YX=     3.1704   ZX=     1.2009
   XY=     4.1491   YY=   182.5760   ZY=     6.0489
   XZ=     1.6694   YZ=     5.7935   ZZ=   168.1950
   Eigenvalues:   165.1631   166.0848   185.4911
      8  H    Isotropic =    30.4239   Anisotropy =     8.6101
   XX=    28.5127   YX=    -1.9078   ZX=     2.1964
   XY=    -2.4714   YY=    35.4665   ZY=     1.0930
   XZ=     1.8688   YZ=     1.6072   ZZ=    27.2925
   Eigenvalues:    25.2128    29.8948    36.1640
      9  H    Isotropic =    30.0769   Anisotropy =    13.1699
   XX=    25.0093   YX=     0.9781   ZX=     1.1762
   XY=     1.3738   YY=    30.4746   ZY=     6.3701
   XZ=     0.8231   YZ=     5.0263   ZZ=    34.7467
   Eigenvalues:    24.7604    26.6135    38.8568
     10  H    Isotropic =    30.0469   Anisotropy =     7.8387
   XX=    31.3587   YX=     3.2663   ZX=    -1.3334
   XY=     4.6453   YY=    31.1709   ZY=     1.7048
   XZ=    -1.0108   YZ=     2.4065   ZZ=    27.6112
   Eigenvalues:    25.1483    29.7198    35.2727
     11  C    Isotropic =   148.1200   Anisotropy =    30.8602
   XX=   154.9987   YX=    -0.5711   ZX=   -10.4650
   XY=     2.5427   YY=   162.7010   ZY=   -11.6752
   XZ=   -12.9293   YZ=   -14.1900   ZZ=   126.6604
   Eigenvalues:   119.1835   156.4831   168.6935
     12  H    Isotropic =    28.6303   Anisotropy =     8.5041
   XX=    25.5572   YX=    -2.3920   ZX=    -4.6893
   XY=    -1.8782   YY=    33.7746   ZY=    -0.4878
   XZ=    -4.7403   YZ=    -1.5375   ZZ=    26.5593
   Eigenvalues:    20.9166    30.6747    34.2997
     13  C    Isotropic =   164.8807   Anisotropy =    20.7919
   XX=   169.2257   YX=   -10.3271   ZX=    -6.2846
   XY=    -8.8775   YY=   154.7645   ZY=    -1.6367
   XZ=    -8.4937   YZ=    -1.6795   ZZ=   170.6519
   Eigenvalues:   148.8554   167.0447   178.7420
     14  H    Isotropic =    29.1533   Anisotropy =     9.3545
   XX=    30.8339   YX=     0.6720   ZX=    -1.9002
   XY=     1.4181   YY=    31.3003   ZY=    -4.8565
   XZ=    -2.4708   YZ=    -5.9231   ZZ=    25.3255
   Eigenvalues:    21.9372    30.1330    35.3896
     15  H    Isotropic =    29.8088   Anisotropy =     6.0063
   XX=    28.8543   YX=    -1.3974   ZX=     2.4126
   XY=     1.8347   YY=    29.1018   ZY=    -1.1898
   XZ=     4.4005   YZ=     1.1029   ZZ=    31.4703
   Eigenvalues:    26.4972    29.1162    33.8130
     16  C    Isotropic =   175.0053   Anisotropy =    19.3388
   XX=   182.4759   YX=    -5.5970   ZX=    -8.8504
   XY=    -2.0680   YY=   173.8056   ZY=     2.7720
   XZ=    -7.8858   YZ=     2.2656   ZZ=   168.7343
   Eigenvalues:   164.7275   172.3905   187.8978
     17  H    Isotropic =    30.8631   Anisotropy =    11.7354
   XX=    34.2040   YX=    -5.3039   ZX=     2.4792
   XY=    -4.3929   YY=    32.0270   ZY=    -2.5795
   XZ=     1.2479   YZ=    -1.4779   ZZ=    26.3582
   Eigenvalues:    25.6886    28.2139    38.6867
     18  H    Isotropic =    31.8812   Anisotropy =    14.2732
   XX=    32.1651   YX=     2.7043   ZX=    -3.0532
   XY=     4.6013   YY=    39.4933   ZY=    -0.3487
   XZ=    -3.4222   YZ=    -2.5495   ZZ=    23.9852
   Eigenvalues:    22.8570    31.3900    41.3966
     19  H    Isotropic =    30.9878   Anisotropy =     8.6673
   XX=    30.6524   YX=    -2.4279   ZX=    -0.4009
   XY=    -0.4413   YY=    32.1510   ZY=     5.5438
   XZ=     0.2007   YZ=     5.0405   ZZ=    30.1600
   Eigenvalues:    25.6270    30.5705    36.7660
     20  C    Isotropic =   156.9386   Anisotropy =    20.1883
   XX=   152.0734   YX=    -9.1821   ZX=    -0.2944
   XY=   -10.3086   YY=   154.1025   ZY=     5.0835
   XZ=     3.6200   YZ=    12.4716   ZZ=   164.6398
   Eigenvalues:   141.0201   159.3981   170.3974
     21  H    Isotropic =    29.4319   Anisotropy =     9.0454
   XX=    26.3596   YX=     0.1497   ZX=    -1.2469
   XY=     0.3532   YY=    35.2145   ZY=     1.2502
   XZ=    -1.1648   YZ=     1.6906   ZZ=    26.7216
   Eigenvalues:    25.1846    27.6489    35.4622
     22  H    Isotropic =    29.0063   Anisotropy =    10.0301
   XX=    34.6607   YX=     0.8194   ZX=     2.3114
   XY=    -0.6228   YY=    26.4987   ZY=     2.7847
   XZ=     3.6751   YZ=     3.1592   ZZ=    25.8595
   Eigenvalues:    22.7736    28.5523    35.6931
     23  C    Isotropic =   172.4772   Anisotropy =    19.1978
   XX=   159.8790   YX=     0.6060   ZX=     3.3903
   XY=    -0.6193   YY=   172.3946   ZY=    -0.4196
   XZ=    -0.0445   YZ=    -0.2055   ZZ=   185.1579
   Eigenvalues:   159.7687   172.3870   185.2757
     24  H    Isotropic =    30.5595   Anisotropy =     9.0835
   XX=    32.6435   YX=     1.4209   ZX=     2.9763
   XY=     0.6107   YY=    26.4172   ZY=     2.5073
   XZ=     3.7768   YZ=     2.4582   ZZ=    32.6178
   Eigenvalues:    25.5410    29.5223    36.6152
     25  H    Isotropic =    30.1460   Anisotropy =     5.5871
   XX=    25.2206   YX=     1.9983   ZX=     0.1145
   XY=     1.9683   YY=    32.5178   ZY=     1.7079
   XZ=    -0.2441   YZ=     0.3726   ZZ=    32.6997
   Eigenvalues:    24.7035    31.8639    33.8707
     26  H    Isotropic =    30.1906   Anisotropy =    13.1993
   XX=    26.8925   YX=    -1.5080   ZX=    -2.2041
   XY=    -2.1107   YY=    28.3562   ZY=     4.8397
   XZ=    -3.2986   YZ=     5.5654   ZZ=    35.3231
   Eigenvalues:    25.4313    26.1504    38.9901
     27  C    Isotropic =   165.6383   Anisotropy =    25.5094
   XX=   160.8578   YX=     5.9967   ZX=    -0.0242
   XY=     9.5147   YY=   179.8668   ZY=    -0.2139
   XZ=     1.6664   YZ=    -1.7069   ZZ=   156.1902
   Eigenvalues:   155.6786   158.5916   182.6446
     28  H    Isotropic =    30.2657   Anisotropy =     8.4053
   XX=    30.6117   YX=     0.1145   ZX=    -3.6462
   XY=    -2.7010   YY=    34.5212   ZY=     1.0865
   XZ=    -3.9880   YZ=     2.5695   ZZ=    25.6642
   Eigenvalues:    23.4971    31.4308    35.8693
     29  H    Isotropic =    30.1501   Anisotropy =     9.6216
   XX=    29.8485   YX=     0.1690   ZX=     4.0085
   XY=    -3.0313   YY=    35.2959   ZY=    -1.4393
   XZ=     4.4523   YZ=    -2.5131   ZZ=    25.3059
   Eigenvalues:    22.6991    31.1868    36.5645
     30  C    Isotropic =   177.5246   Anisotropy =    17.7124
   XX=   171.3430   YX=     3.2533   ZX=     0.0205
   XY=     2.8201   YY=   188.7548   ZY=     1.0105
   XZ=     0.5915   YZ=     0.9863   ZZ=   172.4761
   Eigenvalues:   170.8172   172.4238   189.3328
     31  H    Isotropic =    30.5369   Anisotropy =    12.4154
   XX=    35.3034   YX=     4.3951   ZX=    -0.5447
   XY=     5.3487   YY=    32.0064   ZY=    -0.1227
   XZ=    -0.4924   YZ=    -0.0701   ZZ=    24.3011
   Eigenvalues:    24.2735    28.5234    38.8139
     32  H    Isotropic =    30.6604   Anisotropy =     9.9666
   XX=    28.0855   YX=     2.7167   ZX=    -1.4926
   XY=     1.4997   YY=    33.7157   ZY=     5.3241
   XZ=    -1.4023   YZ=     4.5966   ZZ=    30.1801
   Eigenvalues:    24.8621    29.8144    37.3048
     33  H    Isotropic =    30.5839   Anisotropy =     9.7149
   XX=    28.2947   YX=     2.3950   ZX=     2.1113
   XY=     0.7871   YY=    34.5297   ZY=    -4.8149
   XZ=     2.1347   YZ=    -4.2217   ZZ=    28.9273
   Eigenvalues:    24.5579    30.1333    37.0605
     34  C    Isotropic =   158.0444   Anisotropy =    22.7667
   XX=   149.6182   YX=    -9.9971   ZX=    -3.0907
   XY=   -11.0964   YY=   153.0495   ZY=    -3.4794
   XZ=    -5.4770   YZ=    -8.1307   ZZ=   171.4654
   Eigenvalues:   139.1176   161.7933   173.2222
     35  H    Isotropic =    29.3388   Anisotropy =     9.7805
   XX=    25.2164   YX=     1.0534   ZX=     1.0828
   XY=     1.3161   YY=    34.8106   ZY=    -2.5796
   XZ=     1.0118   YZ=    -2.9901   ZZ=    27.9894
   Eigenvalues:    24.4211    27.7361    35.8591
     36  H    Isotropic =    28.7347   Anisotropy =    10.2447
   XX=    35.1527   YX=    -0.1545   ZX=    -1.1951
   XY=    -1.7372   YY=    24.8898   ZY=    -2.8161
   XZ=    -2.6776   YZ=    -2.8937   ZZ=    26.1617
   Eigenvalues:    22.3020    28.3376    35.5645
     37  C    Isotropic =   170.9676   Anisotropy =    18.5401
   XX=   157.8084   YX=     0.3299   ZX=    -5.7778
   XY=    -1.3108   YY=   173.2513   ZY=     3.0389
   XZ=    -2.1481   YZ=     2.7248   ZZ=   181.8431
   Eigenvalues:   157.1718   172.4033   183.3277
     38  H    Isotropic =    30.0569   Anisotropy =    13.3986
   XX=    25.6152   YX=    -0.8343   ZX=     0.8937
   XY=    -1.3596   YY=    27.1608   ZY=    -3.6889
   XZ=     1.9413   YZ=    -4.3134   ZZ=    37.3949
   Eigenvalues:    24.9889    26.1926    38.9894
     39  H    Isotropic =    30.1260   Anisotropy =     5.6296
   XX=    25.4982   YX=     2.2507   ZX=    -0.6885
   XY=     2.4237   YY=    32.1215   ZY=    -1.6763
   XZ=    -0.4849   YZ=    -0.1817   ZZ=    32.7584
   Eigenvalues:    24.7467    31.7524    33.8791
     40  H    Isotropic =    30.3910   Anisotropy =     8.6117
   XX=    33.0182   YX=    -0.0738   ZX=    -3.1849
   XY=    -1.4137   YY=    25.9864   ZY=    -1.5627
   XZ=    -3.8307   YZ=    -0.8097   ZZ=    32.1685
   Eigenvalues:    25.4527    29.5882    36.1321
     41  Sn   Isotropic =  2158.0422   Anisotropy =   833.3845
   XX=  2711.8388   YX=   -31.0242   ZX=    -2.8772
   XY=   -41.0595   YY=  1977.5153   ZY=    -9.5693
   XZ=    11.9086   YZ=   -16.1113   ZZ=  1784.7727
   Eigenvalues:  1783.9162  1976.5786  2713.6319
     42  Cl   Isotropic =   754.1125   Anisotropy =   323.5189
   XX=   740.2433   YX=    47.4301   ZX=  -171.6875
   XY=    27.7404   YY=   702.8835   ZY=   -25.9498
   XZ=  -187.9152   YZ=   -15.9921   ZZ=   819.2107
   Eigenvalues:   593.1685   699.3772   969.7918
     43  Cl   Isotropic =   750.8644   Anisotropy =   314.3578
   XX=   721.4272   YX=   120.4667   ZX=   126.1041
   XY=    98.9319   YY=   756.1969   ZY=    64.9328
   XZ=   157.3206   YZ=    54.8716   ZZ=   774.9691
   Eigenvalues:   586.8980   705.2589   960.4363
     44  Cl   Isotropic =   751.7676   Anisotropy =   291.3400
   XX=   711.4445   YX=  -148.7025   ZX=    37.8731
   XY=  -127.3497   YY=   845.6591   ZY=   -45.9593
   XZ=    37.0433   YZ=   -45.9132   ZZ=   698.1991
   Eigenvalues:   624.2072   685.1013   945.9943
     45  C    Isotropic =   170.7914   Anisotropy =    21.4200
   XX=   162.7493   YX=     6.5530   ZX=    -5.7164
   XY=     3.8244   YY=   181.4498   ZY=    -4.7875
   XZ=    -6.3753   YZ=    -4.5437   ZZ=   168.1750
   Eigenvalues:   158.6647   168.6380   185.0713
     46  H    Isotropic =    29.9846   Anisotropy =    12.0369
   XX=    31.9891   YX=     2.7120   ZX=    -4.0071
   XY=     4.1551   YY=    30.7204   ZY=    -3.9580
   XZ=    -4.8920   YZ=    -3.5920   ZZ=    27.2442
   Eigenvalues:    24.0809    27.8637    38.0092
     47  H    Isotropic =    30.1834   Anisotropy =     9.4216
   XX=    28.8962   YX=     0.3300   ZX=     1.4435
   XY=    -0.4589   YY=    29.8362   ZY=    -5.4043
   XZ=     1.9036   YZ=    -5.2150   ZZ=    31.8178
   Eigenvalues:    25.1369    28.9488    36.4644
     48  H    Isotropic =    30.3089   Anisotropy =     8.2325
   XX=    25.8905   YX=     1.2390   ZX=    -1.6791
   XY=     1.3440   YY=    35.4007   ZY=     1.9806
   XZ=    -1.9947   YZ=     0.8029   ZZ=    29.6354
   Eigenvalues:    24.8556    30.2738    35.7972
     49  H    Isotropic =    28.4453   Anisotropy =     9.1261
   XX=    30.4121   YX=    -1.5726   ZX=     2.2271
   XY=    -2.2624   YY=    31.0544   ZY=    -4.1525
   XZ=     2.0465   YZ=    -3.7889   ZZ=    23.8693
   Eigenvalues:    21.9312    28.8752    34.5293
     50  C    Isotropic =    19.3003   Anisotropy =   171.9780
   XX=   -22.6692   YX=    16.2149   ZX=    10.5271
   XY=    -6.0132   YY=   133.7088   ZY=    -3.6878
   XZ=    -3.5205   YZ=    -4.1453   ZZ=   -53.1389
   Eigenvalues:   -53.6434   -22.4081   133.9523
     51  C    Isotropic =    48.3162   Anisotropy =   163.9995
   XX=    22.1216   YX=    10.6248   ZX=   -28.8885
   XY=     0.5749   YY=   157.4178   ZY=     2.3910
   XZ=   -50.7348   YZ=     0.9856   ZZ=   -34.5908
   Eigenvalues:   -55.1903    42.4896   157.6492
     52  C    Isotropic =    51.6132   Anisotropy =   159.3330
   XX=    30.2345   YX=    10.1437   ZX=    25.7218
   XY=    11.4064   YY=   156.9195   ZY=     0.7507
   XZ=    43.7091   YZ=    -4.5706   ZZ=   -32.3145
   Eigenvalues:   -47.9493    44.9537   157.8351
     53  C    Isotropic =    70.0887   Anisotropy =   152.5403
   XX=    34.2025   YX=    11.2337   ZX=    48.0124
   XY=     4.0437   YY=   171.2555   ZY=     8.6734
   XZ=    26.1112   YZ=    -4.7618   ZZ=     4.8080
   Eigenvalues:   -20.4018    58.8856   171.7822
     54  H    Isotropic =    23.7507   Anisotropy =    13.1151
   XX=    28.5937   YX=    -1.4647   ZX=    -6.6323
   XY=    -0.7607   YY=    20.1307   ZY=     0.4091
   XZ=    -5.5859   YZ=     0.4843   ZZ=    22.5278
   Eigenvalues:    18.7079    20.0502    32.4942
     55  C    Isotropic =    68.0096   Anisotropy =   175.8957
   XX=    24.8455   YX=    10.1636   ZX=   -42.4827
   XY=    24.7773   YY=   183.2570   ZY=     0.9907
   XZ=   -27.7934   YZ=    -2.4311   ZZ=    -4.0738
   Eigenvalues:   -28.0106    46.7660   185.2734
     56  H    Isotropic =    23.6658   Anisotropy =    13.8438
   XX=    28.7022   YX=    -1.3882   ZX=     6.7733
   XY=    -0.7858   YY=    19.3309   ZY=    -0.3447
   XZ=     5.9392   YZ=    -0.3159   ZZ=    22.9643
   Eigenvalues:    18.6857    19.4167    32.8950
     57  C    Isotropic =    14.2230   Anisotropy =    80.2290
   XX=   -30.5605   YX=     5.3891   ZX=    -2.2746
   XY=    -4.3222   YY=    67.7037   ZY=    -0.0676
   XZ=     0.7471   YZ=     0.8551   ZZ=     5.5257
   Eigenvalues:   -30.5796     5.5395    67.7090
     58  H    Isotropic =    25.7592   Anisotropy =     3.8860
   XX=    28.1105   YX=    -0.1387   ZX=     1.5675
   XY=    -0.6914   YY=    25.0379   ZY=     0.2239
   XZ=     0.2357   YZ=    -0.0225   ZZ=    24.1292
   Eigenvalues:    23.9031    25.0246    28.3499
     59  H    Isotropic =    25.3254   Anisotropy =     5.8416
   XX=    28.8247   YX=     0.3687   ZX=    -2.6433
   XY=     0.5169   YY=    24.4299   ZY=    -0.1516
   XZ=    -0.3566   YZ=    -0.2010   ZZ=    22.7215
   Eigenvalues:    22.3703    24.3861    29.2198
     60  O    Isotropic =   252.1406   Anisotropy =   115.8384
   XX=   254.4475   YX=   -43.8847   ZX=   -32.7809
   XY=    -0.5941   YY=   321.9738   ZY=    26.0263
   XZ=   -55.7524   YZ=   -32.5659   ZZ=   180.0006
   Eigenvalues:   158.4364   268.6192   329.3662
     61  C    Isotropic =   121.4790   Anisotropy =    90.5261
   XX=   129.5650   YX=    36.2470   ZX=    24.5139
   XY=    37.5270   YY=   128.7581   ZY=    25.0488
   XZ=    24.1031   YZ=    24.1012   ZZ=   106.1140
   Eigenvalues:    90.2762    92.3311   181.8297
     62  H    Isotropic =    27.7543   Anisotropy =     8.7625
   XX=    28.0431   YX=     4.5860   ZX=     0.4613
   XY=     3.7442   YY=    30.4276   ZY=    -0.8165
   XZ=     0.7600   YZ=     1.1431   ZZ=    24.7922
   Eigenvalues:    24.4386    25.2283    33.5960
     63  H    Isotropic =    27.6761   Anisotropy =     8.9869
   XX=    32.9890   YX=     0.2075   ZX=     0.9661
   XY=     2.8171   YY=    25.3480   ZY=     1.5726
   XZ=     2.4085   YZ=     0.6296   ZZ=    24.6914
   Eigenvalues:    23.8420    25.5190    33.6674
     64  H    Isotropic =    27.2557   Anisotropy =     7.8857
   XX=    28.3826   YX=     2.3789   ZX=     3.8572
   XY=     1.6896   YY=    24.5921   ZY=     4.1871
   XZ=     1.1936   YZ=     1.0860   ZZ=    28.7922
   Eigenvalues:    23.1772    26.0769    32.5128
 End of Minotr F.D. properties file   721 does not exist.
 End of Minotr F.D. properties file   722 does not exist.
 End of Minotr F.D. properties file   788 does not exist.
 Leave Link 1002 at Sun Aug 25 14:47:47 2019, MaxMem=   939524096 cpu:     41659.6
 (Enter /scr/programas/g09/l601.exe)
 Copying SCF densities to generalized density rwf, IOpCl= 0 IROHF=0.

 **********************************************************************

            Population analysis using the SCF density.

 **********************************************************************

 Orbital symmetries:
       Occupied  (A) (A) (A) (A) (A) (A) (A) (A) (A) (A) (A) (A)
                 (A) (A) (A) (A) (A) (A) (A) (A) (A) (A) (A) (A)
                 (A) (A) (A) (A) (A) (A) (A) (A) (A) (A) (A) (A)
                 (A) (A) (A) (A) (A) (A) (A) (A) (A) (A) (A) (A)
                 (A) (A) (A) (A) (A) (A) (A) (A) (A) (A) (A) (A)
                 (A) (A) (A) (A) (A) (A) (A) (A) (A) (A) (A) (A)
                 (A) (A) (A) (A) (A) (A) (A) (A) (A) (A) (A) (A)
                 (A) (A) (A) (A) (A) (A) (A) (A) (A) (A) (A) (A)
                 (A) (A) (A) (A) (A) (A) (A) (A) (A) (A) (A) (A)
                 (A) (A) (A) (A) (A) (A) (A) (A) (A) (A) (A) (A)
                 (A) (A) (A) (A) (A) (A) (A) (A) (A) (A) (A) (A)
                 (A) (A) (A) (A) (A) (A) (A) (A) (A) (A) (A) (A)
                 (A) (A) (A) (A) (A) (A) (A) (A) (A) (A) (A) (A)
                 (A) (A) (A) (A) (A) (A) (A) (A) (A) (A) (A) (A)
                 (A) (A) (A) (A) (A) (A) (A) (A) (A) (A) (A) (A)
                 (A) (A) (A) (A)
       Virtual   (A) (A) (A) (A) (A) (A) (A) (A) (A) (A) (A) (A)
                 (A) (A) (A) (A) (A) (A) (A) (A) (A) (A) (A) (A)
                 (A) (A) (A) (A) (A) (A) (A) (A) (A) (A) (A) (A)
                 (A) (A) (A) (A) (A) (A) (A) (A) (A) (A) (A) (A)
                 (A) (A) (A) (A) (A) (A) (A) (A) (A) (A) (A) (A)
                 (A) (A) (A) (A) (A) (A) (A) (A) (A) (A) (A) (A)
                 (A) (A) (A) (A) (A) (A) (A) (A) (A) (A) (A) (A)
                 (A) (A) (A) (A) (A) (A) (A) (A) (A) (A) (A) (A)
                 (A) (A) (A) (A) (A) (A) (A) (A) (A) (A) (A) (A)
                 (A) (A) (A) (A) (A) (A) (A) (A) (A) (A) (A) (A)
                 (A) (A) (A) (A) (A) (A) (A) (A) (A) (A) (A) (A)
                 (A) (A) (A) (A) (A) (A) (A) (A) (A) (A) (A) (A)
                 (A) (A) (A) (A) (A) (A) (A) (A) (A) (A) (A) (A)
                 (A) (A) (A) (A) (A) (A) (A) (A) (A) (A) (A) (A)
                 (A) (A) (A) (A) (A) (A) (A) (A) (A) (A) (A) (A)
                 (A) (A) (A) (A) (A) (A) (A) (A) (A) (A) (A) (A)
                 (A) (A) (A) (A) (A) (A) (A) (A) (A) (A) (A) (A)
                 (A) (A) (A) (A) (A) (A) (A) (A) (A) (A) (A) (A)
                 (A) (A) (A) (A) (A) (A) (A) (A) (A) (A) (A) (A)
                 (A) (A) (A) (A) (A) (A) (A) (A) (A) (A) (A) (A)
                 (A) (A) (A) (A) (A) (A) (A) (A) (A) (A) (A) (A)
                 (A) (A) (A) (A) (A) (A) (A) (A) (A) (A) (A) (A)
                 (A) (A) (A) (A) (A) (A) (A) (A) (A) (A) (A) (A)
                 (A) (A) (A) (A) (A) (A) (A) (A) (A) (A) (A) (A)
                 (A) (A) (A) (A) (A) (A) (A) (A) (A) (A) (A) (A)
                 (A) (A) (A) (A) (A) (A) (A) (A) (A) (A) (A) (A)
                 (A) (A) (A) (A) (A) (A) (A) (A) (A) (A) (A) (A)
                 (A) (A) (A) (A) (A) (A) (A) (A) (A) (A) (A) (A)
                 (A) (A) (A) (A) (A) (A) (A) (A) (A) (A) (A) (A)
                 (A) (A) (A) (A) (A) (A) (A) (A) (A) (A) (A) (A)
                 (A) (A) (A) (A) (A) (A) (A) (A) (A) (A) (A) (A)
                 (A) (A) (A) (A) (A) (A) (A) (A) (A) (A) (A) (A)
                 (A) (A) (A) (A) (A) (A) (A) (A) (A) (A) (A) (A)
                 (A) (A) (A) (A) (A) (A) (A) (A) (A) (A) (A) (A)
                 (A) (A) (A) (A) (A) (A) (A) (A) (A) (A) (A) (A)
                 (A) (A) (A) (A) (A) (A) (A) (A) (A) (A) (A) (A)
                 (A) (A) (A) (A) (A) (A) (A) (A) (A) (A) (A) (A)
                 (A) (A) (A) (A) (A) (A) (A) (A) (A) (A) (A) (A)
                 (A) (A) (A) (A) (A) (A) (A) (A) (A) (A) (A) (A)
                 (A) (A) (A) (A) (A) (A) (A) (A) (A) (A) (A) (A)
                 (A) (A) (A) (A) (A) (A) (A) (A) (A) (A) (A) (A)
                 (A) (A) (A) (A) (A) (A) (A) (A) (A) (A) (A) (A)
                 (A) (A) (A) (A) (A) (A) (A) (A) (A) (A) (A) (A)
                 (A) (A) (A) (A) (A) (A) (A) (A) (A) (A) (A) (A)
                 (A) (A) (A) (A) (A) (A) (A) (A) (A) (A) (A) (A)
                 (A) (A) (A) (A) (A) (A) (A) (A) (A) (A) (A) (A)
                 (A) (A) (A) (A) (A) (A) (A) (A) (A) (A) (A) (A)
                 (A) (A) (A) (A) (A) (A) (A) (A) (A) (A) (A) (A)
                 (A) (A) (A) (A) (A) (A) (A) (A) (A) (A) (A) (A)
                 (A) (A) (A) (A) (A) (A) (A) (A) (A) (A) (A) (A)
                 (A) (A) (A) (A) (A) (A) (A) (A) (A) (A) (A) (A)
                 (A) (A) (A) (A) (A) (A) (A) (A) (A) (A) (A) (A)
                 (A) (A) (A) (A) (A) (A) (A) (A) (A) (A) (A) (A)
                 (A) (A) (A) (A) (A) (A) (A) (A) (A) (A) (A) (A)
                 (A) (A) (A) (A) (A) (A) (A) (A) (A) (A) (A) (A)
                 (A) (A) (A) (A) (A) (A) (A) (A) (A) (A) (A) (A)
                 (A) (A) (A) (A) (A) (A) (A) (A) (A) (A) (A) (A)
                 (A) (A) (A) (A) (A) (A) (A) (A) (A) (A) (A) (A)
                 (A) (A) (A) (A) (A) (A) (A) (A) (A) (A) (A) (A)
                 (A) (A) (A) (A) (A) (A) (A) (A) (A) (A) (A) (A)
                 (A) (A) (A) (A) (A) (A) (A) (A) (A) (A) (A) (A)
                 (A) (A) (A) (A) (A) (A) (A) (A) (A) (A) (A) (A)
                 (A) (A) (A) (A) (A) (A) (A) (A) (A) (A) (A) (A)
                 (A) (A) (A) (A) (A) (A) (A) (A) (A) (A) (A) (A)
                 (A) (A) (A) (A) (A) (A) (A) (A) (A) (A) (A) (A)
                 (A) (A) (A) (A) (A) (A) (A) (A) (A) (A) (A) (A)
                 (A) (A) (A) (A) (A) (A) (A) (A) (A) (A) (A) (A)
                 (A) (A) (A) (A) (A) (A) (A) (A) (A) (A) (A) (A)
                 (A) (A) (A) (A) (A) (A) (A) (A) (A) (A) (A) (A)
                 (A) (A) (A) (A) (A) (A) (A) (A) (A) (A) (A) (A)
                 (A) (A) (A) (A) (A) (A) (A) (A) (A) (A) (A) (A)
                 (A) (A) (A) (A) (A) (A) (A) (A) (A) (A) (A) (A)
                 (A) (A) (A) (A) (A) (A) (A) (A) (A) (A) (A) (A)
                 (A) (A) (A) (A) (A) (A) (A) (A) (A) (A) (A) (A)
                 (A) (A) (A) (A) (A) (A) (A) (A) (A) (A) (A) (A)
                 (A) (A) (A) (A) (A) (A) (A) (A) (A) (A) (A) (A)
                 (A) (A) (A) (A) (A) (A) (A) (A) (A) (A) (A) (A)
                 (A) (A) (A) (A) (A) (A) (A) (A) (A) (A) (A) (A)
                 (A) (A) (A) (A) (A) (A) (A) (A) (A) (A) (A) (A)
                 (A) (A) (A) (A) (A) (A) (A) (A) (A) (A) (A) (A)
                 (A) (A) (A) (A) (A) (A) (A) (A) (A) (A) (A) (A)
                 (A) (A) (A) (A) (A) (A) (A) (A) (A) (A) (A) (A)
                 (A) (A) (A) (A) (A) (A) (A) (A) (A) (A) (A) (A)
                 (A) (A) (A) (A) (A) (A) (A) (A) (A) (A) (A) (A)
                 (A) (A) (A) (A) (A) (A) (A) (A) (A) (A) (A) (A)
                 (A) (A) (A) (A) (A) (A) (A) (A) (A) (A) (A) (A)
                 (A) (A) (A) (A) (A) (A) (A) (A) (A) (A) (A) (A)
                 (A) (A) (A) (A) (A) (A) (A) (A) (A) (A) (A) (A)
                 (A) (A) (A) (A) (A) (A) (A) (A) (A) (A) (A)
 The electronic state is 1-A.
 Alpha  occ. eigenvalues -- ********************-427.53637-414.86685-414.86646
 Alpha  occ. eigenvalues -- -414.86372-149.64874-141.92685-141.92682-141.92610
 Alpha  occ. eigenvalues -- -100.55347-100.55245-100.55210 -99.91666 -92.07524
 Alpha  occ. eigenvalues --  -92.07400 -92.07054 -79.03405 -79.03283 -79.03091
 Alpha  occ. eigenvalues --  -79.03028 -79.02985 -76.29726 -76.29577 -28.81258
 Alpha  occ. eigenvalues --  -25.15892 -25.15885 -25.15657 -20.83132 -18.77965
 Alpha  occ. eigenvalues --  -17.70786 -17.70785 -17.70631 -17.70628 -17.70583
 Alpha  occ. eigenvalues --  -17.39972 -17.39741 -17.39003 -11.58348 -11.57922
 Alpha  occ. eigenvalues --  -11.57529 -11.57412 -11.57327  -9.94879  -9.93669
 Alpha  occ. eigenvalues --   -9.90659  -9.90635  -9.90623  -9.90547  -9.90513
 Alpha  occ. eigenvalues --   -9.90468  -9.89944  -9.89602  -9.89503  -9.89424
 Alpha  occ. eigenvalues --   -9.89386  -9.89043  -9.89040  -9.88999  -9.88948
 Alpha  occ. eigenvalues --   -9.88923  -9.88509  -9.13211  -9.13100  -9.13064
 Alpha  occ. eigenvalues --   -6.96964  -6.96860  -6.96811  -6.96419  -6.96407
 Alpha  occ. eigenvalues --   -6.96309  -6.96291  -6.96279  -6.96261  -6.32736
 Alpha  occ. eigenvalues --   -6.32619  -4.55271  -4.55264  -4.55147  -4.55135
 Alpha  occ. eigenvalues --   -4.54987  -4.54882  -4.49963  -3.23412  -3.23387
 Alpha  occ. eigenvalues --   -3.22981  -3.13208  -3.13171  -3.12736  -3.12431
[...]
 Alpha virt. eigenvalues --    0.52841   0.52983   0.53029   0.53525   0.53583
 Alpha virt. eigenvalues --    0.53692   0.54039   0.54262   0.54504   0.54674
 Alpha virt. eigenvalues --    0.54970   0.55053   0.55142   0.55589   0.56058
 Alpha virt. eigenvalues --    0.56259   0.56536   0.56705   0.56766   0.57297
 Alpha virt. eigenvalues --    0.57383   0.57471   0.57709   0.58006   0.58152
 Alpha virt. eigenvalues --    0.58307   0.58669   0.58865   0.59075   0.59314
 Alpha virt. eigenvalues --    0.59502   0.59639   0.59861   0.60052   0.60388
 Alpha virt. eigenvalues --    0.60583   0.60678   0.61054   0.61348   0.61617
 Alpha virt. eigenvalues --    0.61808   0.62185   0.62286   0.62546   0.62617
 Alpha virt. eigenvalues --    0.62997   0.63105   0.63425   0.63651   0.63984
 Alpha virt. eigenvalues --    0.64126   0.64226   0.64710   0.64828   0.65260
 Alpha virt. eigenvalues --    0.65425   0.65491   0.65883   0.65940   0.66171
 Alpha virt. eigenvalues --    0.66411   0.66500   0.67058   0.67225   0.67607
 Alpha virt. eigenvalues --    0.67668   0.67778   0.68068   0.68268   0.68871
 Alpha virt. eigenvalues --    0.69049   0.69280   0.69596   0.69865   0.70034
 Alpha virt. eigenvalues --    0.70201   0.70510   0.70563   0.70927   0.71227
 Alpha virt. eigenvalues --    0.71408   0.71894   0.71970   0.72197   0.72557
 Alpha virt. eigenvalues --    0.72638   0.72951   0.73095   0.73492   0.73914
 Alpha virt. eigenvalues --    0.74081   0.74231   0.74613   0.75043   0.75279
 Alpha virt. eigenvalues --    0.75575   0.75628   0.75751   0.76341   0.76407
 Alpha virt. eigenvalues --    0.76825   0.76871   0.77100   0.77213   0.77597
 Alpha virt. eigenvalues --    0.77818   0.78231   0.78316   0.78506   0.78777
 Alpha virt. eigenvalues --    0.78975   0.79360   0.79400   0.79801   0.79996
 Alpha virt. eigenvalues --    0.80643   0.81046   0.81121   0.81321   0.81733
 Alpha virt. eigenvalues --    0.81860   0.82049   0.82303   0.82699   0.83000
 Alpha virt. eigenvalues --    0.83137   0.83209   0.83871   0.84128   0.84253
 Alpha virt. eigenvalues --    0.84512   0.84733   0.84907   0.85380   0.85632
 Alpha virt. eigenvalues --    0.85902   0.86011   0.86249   0.86684   0.86906
 Alpha virt. eigenvalues --    0.87170   0.87789   0.87902   0.88112   0.88145
 Alpha virt. eigenvalues --    0.88404   0.88659   0.89082   0.89340   0.89768
 Alpha virt. eigenvalues --    0.89898   0.90107   0.90311   0.91000   0.91309
 Alpha virt. eigenvalues --    0.91579   0.91733   0.91823   0.92032   0.92627
 Alpha virt. eigenvalues --    0.92787   0.93067   0.93430   0.93736   0.93855
 Alpha virt. eigenvalues --    0.94113   0.94591   0.94695   0.95241   0.95327
 Alpha virt. eigenvalues --    0.95497   0.96152   0.96393   0.96794   0.97212
 Alpha virt. eigenvalues --    0.97504   0.97674   0.97863   0.98289   0.98577
 Alpha virt. eigenvalues --    0.98779   0.99271   0.99842   1.00027   1.00314
 Alpha virt. eigenvalues --    1.00487   1.01141   1.01241   1.01392   1.01932
 Alpha virt. eigenvalues --    1.02130   1.02484   1.03166   1.03257   1.03396
 Alpha virt. eigenvalues --    1.03634   1.04251   1.04396   1.04563   1.04856
 Alpha virt. eigenvalues --    1.05287   1.05727   1.05931   1.06830   1.07012
 Alpha virt. eigenvalues --    1.07299   1.07630   1.08084   1.08201   1.08702
 Alpha virt. eigenvalues --    1.09123   1.09514   1.09891   1.10201   1.10314
 Alpha virt. eigenvalues --    1.10807   1.11175   1.11613   1.11812   1.11925
 Alpha virt. eigenvalues --    1.12580   1.13100   1.13333   1.13729   1.14337
 Alpha virt. eigenvalues --    1.14608   1.14765   1.15686   1.15697   1.15907
 Alpha virt. eigenvalues --    1.16362   1.16475   1.17118   1.17369   1.18092
 Alpha virt. eigenvalues --    1.18574   1.19350   1.19443   1.19574   1.19706
 Alpha virt. eigenvalues --    1.20448   1.20849   1.20928   1.21744   1.21961
 Alpha virt. eigenvalues --    1.22281   1.22581   1.23853   1.24082   1.24398
 Alpha virt. eigenvalues --    1.24936   1.25590   1.25821   1.26404   1.26901
 Alpha virt. eigenvalues --    1.27355   1.27773   1.28499   1.28613   1.29318
 Alpha virt. eigenvalues --    1.29759   1.29782   1.30199   1.30489   1.30794
 Alpha virt. eigenvalues --    1.31712   1.32468   1.33016   1.33183   1.33741
 Alpha virt. eigenvalues --    1.33871   1.34231   1.34898   1.35142   1.35368
 Alpha virt. eigenvalues --    1.35902   1.36069   1.36164   1.37292   1.37733
 Alpha virt. eigenvalues --    1.38330   1.38398   1.39127   1.39381   1.39620
 Alpha virt. eigenvalues --    1.39704   1.40164   1.40857   1.41281   1.41394
 Alpha virt. eigenvalues --    1.42111   1.42810   1.43245   1.43441   1.43610
 Alpha virt. eigenvalues --    1.43636   1.44012   1.44657   1.45391   1.45603
 Alpha virt. eigenvalues --    1.45846   1.46161   1.46758   1.47168   1.47864
 Alpha virt. eigenvalues --    1.48072   1.48724   1.49145   1.49274   1.50004
 Alpha virt. eigenvalues --    1.50233   1.50835   1.51094   1.51792   1.51874
 Alpha virt. eigenvalues --    1.52269   1.52972   1.53688   1.53851   1.54014
 Alpha virt. eigenvalues --    1.54636   1.55199   1.55762   1.55793   1.56324
 Alpha virt. eigenvalues --    1.56412   1.57654   1.57716   1.58415   1.58631
 Alpha virt. eigenvalues --    1.59664   1.59835   1.60470   1.60712   1.61670
 Alpha virt. eigenvalues --    1.61940   1.62547   1.63376   1.63879   1.64204
 Alpha virt. eigenvalues --    1.64452   1.65035   1.66188   1.66996   1.67473
 Alpha virt. eigenvalues --    1.68529   1.68629   1.69104   1.69584   1.69879
 Alpha virt. eigenvalues --    1.70870   1.71278   1.71750   1.72418   1.73531
 Alpha virt. eigenvalues --    1.73754   1.74298   1.74780   1.75181   1.75739
 Alpha virt. eigenvalues --    1.76180   1.76579   1.77430   1.77993   1.78541
 Alpha virt. eigenvalues --    1.78961   1.79406   1.80407   1.80993   1.81275
 Alpha virt. eigenvalues --    1.81447   1.82367   1.82614   1.83170   1.83481
 Alpha virt. eigenvalues --    1.83675   1.83973   1.85027   1.85326   1.85425
 Alpha virt. eigenvalues --    1.86015   1.86429   1.86849   1.87433   1.87846
 Alpha virt. eigenvalues --    1.88524   1.89143   1.89355   1.89780   1.90151
 Alpha virt. eigenvalues --    1.91275   1.91695   1.92384   1.92946   1.93093
 Alpha virt. eigenvalues --    1.93670   1.94078   1.94249   1.94517   1.95264
 Alpha virt. eigenvalues --    1.95754   1.96413   1.97135   1.97978   1.98364
 Alpha virt. eigenvalues --    1.98832   1.98960   1.99280   1.99858   2.00846
 Alpha virt. eigenvalues --    2.01467   2.02006   2.02472   2.03205   2.03331
 Alpha virt. eigenvalues --    2.03773   2.04814   2.05756   2.05930   2.06786
 Alpha virt. eigenvalues --    2.07381   2.07450   2.08058   2.08519   2.09488
 Alpha virt. eigenvalues --    2.09873   2.10766   2.11135   2.11563   2.11958
 Alpha virt. eigenvalues --    2.12404   2.13175   2.13739   2.14349   2.15196
 Alpha virt. eigenvalues --    2.15634   2.15885   2.16109   2.16395   2.17118
 Alpha virt. eigenvalues --    2.17365   2.18106   2.19089   2.19288   2.19527
 Alpha virt. eigenvalues --    2.20198   2.20641   2.21316   2.21898   2.22365
 Alpha virt. eigenvalues --    2.22533   2.24021   2.24214   2.24971   2.25865
 Alpha virt. eigenvalues --    2.26507   2.26921   2.27263   2.28736   2.29178
 Alpha virt. eigenvalues --    2.29646   2.29898   2.30155   2.31098   2.31571
 Alpha virt. eigenvalues --    2.31786   2.32246   2.33039   2.33269   2.33400
 Alpha virt. eigenvalues --    2.33532   2.33959   2.34742   2.35304   2.35602
 Alpha virt. eigenvalues --    2.36149   2.36607   2.37316   2.37529   2.37664
 Alpha virt. eigenvalues --    2.38034   2.38582   2.39228   2.39742   2.40032
 Alpha virt. eigenvalues --    2.40161   2.40885   2.41453   2.42027   2.43058
 Alpha virt. eigenvalues --    2.43463   2.43962   2.44667   2.45023   2.46065
 Alpha virt. eigenvalues --    2.46348   2.46748   2.47200   2.47767   2.48375
 Alpha virt. eigenvalues --    2.48563   2.49060   2.49217   2.49835   2.50070
 Alpha virt. eigenvalues --    2.51285   2.51735   2.52347   2.53109   2.54189
 Alpha virt. eigenvalues --    2.54807   2.55157   2.56480   2.56727   2.57513
 Alpha virt. eigenvalues --    2.57643   2.58561   2.59407   2.60469   2.61224
 Alpha virt. eigenvalues --    2.61823   2.62355   2.62684   2.63333   2.63689
 Alpha virt. eigenvalues --    2.64225   2.64553   2.65230   2.65891   2.66732
 Alpha virt. eigenvalues --    2.67487   2.68174   2.68429   2.69061   2.69858
 Alpha virt. eigenvalues --    2.71147   2.71423   2.73308   2.73914   2.74292
 Alpha virt. eigenvalues --    2.74712   2.75802   2.76698   2.77287   2.77790
 Alpha virt. eigenvalues --    2.78119   2.78664   2.78935   2.79598   2.79979
 Alpha virt. eigenvalues --    2.81109   2.81495   2.82320   2.82587   2.83010
 Alpha virt. eigenvalues --    2.84025   2.85202   2.86202   2.87644   2.89565
 Alpha virt. eigenvalues --    2.90538   2.91637   2.94229   2.94754   2.95620
 Alpha virt. eigenvalues --    2.96548   2.98632   2.99327   2.99815   3.00353
 Alpha virt. eigenvalues --    3.02252   3.03316   3.04782   3.05936   3.06918
 Alpha virt. eigenvalues --    3.07072   3.07780   3.08497   3.09001   3.10019
 Alpha virt. eigenvalues --    3.11154   3.11474   3.12189   3.12948   3.13951
 Alpha virt. eigenvalues --    3.14397   3.14596   3.15053   3.15864   3.15984
 Alpha virt. eigenvalues --    3.16880   3.17389   3.17543   3.17652   3.18455
 Alpha virt. eigenvalues --    3.19206   3.20450   3.21294   3.22284   3.22321
 Alpha virt. eigenvalues --    3.23395   3.24130   3.25290   3.27055   3.27701
 Alpha virt. eigenvalues --    3.28720   3.29067   3.29722   3.29922   3.30234
 Alpha virt. eigenvalues --    3.31370   3.31680   3.32198   3.32999   3.33384
 Alpha virt. eigenvalues --    3.33560   3.33920   3.34634   3.35971   3.39602
 Alpha virt. eigenvalues --    3.43427   3.46980   3.49098   3.51118   3.53309
 Alpha virt. eigenvalues --    3.55173   3.58446   3.62032   3.63262   3.70515
 Alpha virt. eigenvalues --    3.75442   3.87935   3.95177   3.96945   3.98409
 Alpha virt. eigenvalues --    4.00882   4.05648   4.16610   4.19944   4.20045
 Alpha virt. eigenvalues --    4.21989   4.22380   4.23220   4.24084   4.26677
 Alpha virt. eigenvalues --    4.28248   4.32835   4.34640   4.38358   4.39834
 Alpha virt. eigenvalues --    4.41485   4.43512   4.44419   4.45727   4.46523
 Alpha virt. eigenvalues --    4.48276   4.50645   4.51516   4.54510   4.68125
 Alpha virt. eigenvalues --    4.88093   5.46933   5.60011   5.65939   5.84115
 Alpha virt. eigenvalues --    6.09622   6.14017   6.68050   6.68472   6.69427
 Alpha virt. eigenvalues --    6.70027   6.70274   6.71208   6.72424   6.72991
 Alpha virt. eigenvalues --    6.73442   6.73849   6.74330   6.74664   6.75778
 Alpha virt. eigenvalues --    6.76295   6.77609   6.79343   6.82855   6.83901
 Alpha virt. eigenvalues --    6.85926   6.88988   6.90212   6.91496   6.91904
 Alpha virt. eigenvalues --    6.92698   6.92930   6.93766   6.95239   6.95639
 Alpha virt. eigenvalues --    6.96684   6.97801   6.98573   6.99303   7.00097
 Alpha virt. eigenvalues --    7.00494   7.02862   7.03406   7.04340   7.05532
 Alpha virt. eigenvalues --    7.06259   7.10689   7.11392   7.14721   7.27799
 Alpha virt. eigenvalues --    7.64466   7.69449   7.71784   7.73273   7.75771
 Alpha virt. eigenvalues --    7.76584   8.49503   8.50654   8.50779   8.51392
 Alpha virt. eigenvalues --    8.51809   8.52703   8.55035   8.61351   8.71760
 Alpha virt. eigenvalues --    9.01910   9.83281   9.83576   9.85229   9.87104
 Alpha virt. eigenvalues --    9.89739   9.90284   9.96515   9.99700  10.02082
 Alpha virt. eigenvalues --   10.05563  10.06216  10.08074  10.10923  10.33081
 Alpha virt. eigenvalues --   14.03103  14.14557  15.59173  16.71590  16.77022
 Alpha virt. eigenvalues --   16.90886  16.93815  17.02592  17.04722  17.06697
 Alpha virt. eigenvalues --   17.07857  17.07932  17.09037  17.11966  17.14446
 Alpha virt. eigenvalues --   17.15576  17.17422  17.19743  17.20426  17.22742
 Alpha virt. eigenvalues --   17.24304  17.29242  17.35509  17.38787  17.48855
 Alpha virt. eigenvalues --   21.07018  21.31774  21.34361  25.46070  25.55495
 Alpha virt. eigenvalues --   25.59395  26.18363  30.25507  31.67631  31.70159
 Alpha virt. eigenvalues --   31.73540  31.75635  31.80541  42.99269  43.02810
 Alpha virt. eigenvalues --   43.03221  43.05726  43.21484  61.75548  61.85695
 Alpha virt. eigenvalues --   62.96181  78.04184  78.08972  78.21195  82.22573
 Alpha virt. eigenvalues --   86.18214  86.38515  86.40439  89.18161  89.27670
 Alpha virt. eigenvalues --   89.30132  89.32191  89.33728  89.33951  89.34731
 Alpha virt. eigenvalues --   89.38832  89.40140  89.41473  89.44288  89.45634
 Alpha virt. eigenvalues --   89.46074  89.48723  89.50350  89.53245  89.62256
 Alpha virt. eigenvalues --   89.66525  89.74249 121.81748 121.88479 121.91167
 Alpha virt. eigenvalues --  163.02000 239.14542 257.33304 332.08040 332.18774
 Alpha virt. eigenvalues --  428.77777 428.93691 428.95264 431.65672 431.70780
 Alpha virt. eigenvalues --  431.83664 590.19463 590.24678 590.26678 773.00767
 Alpha virt. eigenvalues --  839.549562068.606312529.929895495.40558**********
 Alpha virt. eigenvalues -- ********************
          Condensed to atoms (all electrons):
 Mulliken charges:
               1
     1  Pt   0.274771
     2  P    0.069985
     3  P    0.211551
     4  C   -0.378220
     5  H    0.087841
     6  H    0.094475
     7  C   -0.179666
     8  H    0.108869
     9  H    0.137106
    10  H    0.113414
    11  C   -0.319231
    12  H    0.093375
    13  C   -0.273698
    14  H    0.107373
    15  H    0.081719
    16  C   -0.107589
    17  H    0.118210
    18  H    0.053609
    19  H    0.094172
    20  C   -0.389527
    21  H    0.111143
    22  H    0.081955
    23  C   -0.113634
    24  H    0.104996
    25  H    0.074888
    26  H    0.132998
    27  C   -0.411830
    28  H    0.081252
    29  H    0.079778
    30  C   -0.175691
    31  H    0.135223
    32  H    0.114685
    33  H    0.112134
    34  C   -0.439445
    35  H    0.103964
    36  H    0.090371
    37  C   -0.097891
    38  H    0.136846
    39  H    0.072852
    40  H    0.094942
    41  Sn   0.309476
    42  Cl  -0.282639
    43  Cl  -0.295693
    44  Cl  -0.229785
    45  C   -0.171174
    46  H    0.131251
    47  H    0.115924
    48  H    0.111173
    49  H    0.077806
    50  C    0.095290
    51  C    0.130958
    52  C    0.112428
    53  C    0.296243
    54  H    0.050249
    55  C   -0.209385
    56  H    0.052260
    57  C   -0.944410
    58  H    0.126009
    59  H    0.107190
    60  O   -0.043561
    61  C   -0.268763
    62  H    0.145150
    63  H    0.163809
    64  H    0.132119
 Sum of Mulliken charges =   0.00000
 Mulliken charges with hydrogens summed into heavy atoms:
               1
     1  Pt   0.274771
     2  P    0.069985
     3  P    0.211551
     4  C   -0.195903
     7  C    0.179722
    11  C   -0.148049
    13  C   -0.084606
    16  C    0.158402
    20  C   -0.196430
    23  C    0.199248
    27  C   -0.250799
    30  C    0.186351
    34  C   -0.245110
    37  C    0.206750
    41  Sn   0.309476
    42  Cl  -0.282639
    43  Cl  -0.295693
    44  Cl  -0.229785
    45  C    0.187174
    50  C    0.095290
    51  C    0.181207
    52  C    0.164688
    53  C    0.422252
    55  C   -0.102194
    57  C   -0.944410
    60  O   -0.043561
    61  C    0.172315
 Electronic spatial extent (au):  <R**2>=          17520.0630
 Charge=              0.0000 electrons
 Dipole moment (field-independent basis, Debye):
    X=            -13.4805    Y=              0.3098    Z=             -0.7589  Tot=             13.5054
 Quadrupole moment (field-independent basis, Debye-Ang):
   XX=           -291.2543   YY=           -220.5540   ZZ=           -245.1173
   XY=             18.8205   XZ=              5.7896   YZ=             -1.6810
 Traceless Quadrupole moment (field-independent basis, Debye-Ang):
   XX=            -38.9458   YY=             31.7545   ZZ=              7.1912
   XY=             18.8205   XZ=              5.7896   YZ=             -1.6810
 Octapole moment (field-independent basis, Debye-Ang**2):
  XXX=           -210.0675  YYY=              2.1463  ZZZ=              4.0348  XYY=              5.0187
  XXY=            -35.8464  XXZ=            -47.2692  XZZ=            -21.8044  YZZ=            -10.2150
  YYZ=             -9.7257  XYZ=              0.5660
 Hexadecapole moment (field-independent basis, Debye-Ang**3):
 XXXX=         -12579.9851 YYYY=          -7611.8843 ZZZZ=          -2558.8345 XXXY=            411.7514
 XXXZ=            306.0511 YYYX=             99.2402 YYYZ=             -1.1226 ZZZX=             28.5910
 ZZZY=             -2.6657 XXYY=          -3566.4935 XXZZ=          -2598.7299 YYZZ=          -1681.1600
 XXYZ=            -30.4428 YYXZ=            -29.7487 ZZXY=            -31.0695
 N-N= 8.064233846526D+03 E-N=-7.758940726642D+04  KE= 2.557101401584D+04
 Calculating spin-rotation constants.
 Leave Link  601 at Sun Aug 25 14:52:43 2019, MaxMem=   939524096 cpu:       361.0
 (Enter /scr/programas/g09/l9999.exe)
 1\1\GINC-NQTCM\SP\RPBEPBE\Gen\C19H37Cl3O1P2Pt1Sn1\NQTCM\25-Aug-2019\0\
 \#PBEPBE/gen scf=(maxcycle=500,conver=4) NMR=GIAO Scrf=(solvent=Dichlo
 romethane)\\estrutura 76\\0,1\Pt,0,-0.172342,-0.020138,-0.04507\P,0,0.
 067233,2.37747,-0.102027\P,0,-0.516283,-2.387679,0.119689\C,0,0.283056
 ,2.960781,1.643932\H,0,1.059039,2.30215,2.064804\H,0,-0.656107,2.70024
 9,2.158436\C,0,0.654411,4.428325,1.879085\H,0,-0.06532,5.125897,1.4239
 78\H,0,0.676951,4.635392,2.960951\H,0,1.653804,4.662325,1.482924\C,0,1
 .595684,2.926776,-1.021537\H,0,1.733314,2.216413,-1.850427\C,0,-1.3094
 54,3.387067,-0.841926\H,0,-0.856049,4.323536,-1.197508\H,0,-1.63826,2.
 837963,-1.737755\C,0,-2.506972,3.719006,0.051869\H,0,-3.250933,4.28407
 3,-0.533579\H,0,-3.001272,2.820205,0.446774\H,0,-2.216419,4.3538,0.903
 9\C,0,0.338672,-3.370214,-1.198683\H,0,0.099385,-4.433028,-1.030868\H,
 0,1.420289,-3.263085,-1.009453\C,0,-0.014517,-2.944847,-2.626101\H,0,-
 1.085912,-3.07941,-2.844218\H,0,0.235005,-1.884515,-2.796862\H,0,0.546
 271,-3.547753,-3.354215\C,0,-2.292029,-2.931148,0.053376\H,0,-2.77524,
 -2.472469,0.932644\H,0,-2.743719,-2.430703,-0.818575\C,0,-2.545844,-4.
 44,0.010553\H,0,-3.627322,-4.633928,0.08155\H,0,-2.192775,-4.892838,-0
 .929248\H,0,-2.062714,-4.974683,0.843605\C,0,0.129606,-3.107685,1.7027
 22\H,0,-0.186012,-4.164216,1.736647\H,0,1.229789,-3.111681,1.622004\C,
 0,-0.313802,-2.365554,2.967653\H,0,0.07639,-2.87999,3.862515\H,0,0.069
 547,-1.331486,2.977714\H,0,-1.411749,-2.322591,3.065815\Sn,0,2.546018,
 -0.342103,-0.04444\Cl,0,3.867071,0.13398,-2.056704\Cl,0,3.767915,1.058
 252,1.576476\Cl,0,3.665122,-2.459609,0.506549\C,0,1.683557,4.358312,-1
 .559603\H,0,2.693972,4.527211,-1.965105\H,0,0.973044,4.534572,-2.38024
 \H,0,1.50766,5.119932,-0.787161\H,0,2.421199,2.735154,-0.317047\C,0,-2
 .211779,0.231125,-0.002031\C,0,-2.919147,0.316628,1.209388\C,0,-2.9532
 17,0.287887,-1.195107\C,0,-4.314219,0.443831,1.230507\H,0,-2.383902,0.
 277361,2.162509\C,0,-4.347498,0.41908,-1.185877\H,0,-2.444077,0.228758
 ,-2.161622\C,0,-5.03769,0.496005,0.032352\H,0,-4.857921,0.508964,2.176
 375\H,0,-4.895047,0.473504,-2.130031\O,0,-6.396878,0.675788,0.099255\C
 ,0,-7.211668,-0.269566,-0.579137\H,0,-7.110799,-1.275801,-0.125057\H,0
 ,-8.252845,0.070735,-0.475775\H,0,-6.973438,-0.346752,-1.65594\\Versio
 n=EM64L-G09RevD.01\State=1-A\HF=-25974.5230702\RMSD=3.242e-05\Dipole=-
 5.3036195,0.1218907,-0.2985787\Quadrupole=-28.9552138,23.6087183,5.346
 4955,13.9925942,4.304455,-1.2498006\PG=C01 [X(C19H37Cl3O1P2Pt1Sn1)]\\@


 MAN IS THE MEASURE OF ALL THINGS.
  -- PROTAGORAS (5TH CENTURY B.C.)
 Job cpu time:       0 days 18 hours 12 minutes 18.4 seconds.
 File lengths (MBytes):  RWF=   1212 Int=      0 D2E=      0 Chk=     86 Scr=      1
 Normal termination of Gaussian 09 at Sun Aug 25 14:52:44 2019.
