 Entering Gaussian System, Link 0=g09
 Input=estrutura6.com
 Output=estrutura6.log
 Initial command:
 /home/scr/programs/g09/l1.exe /home/scr/guest1/Gau-18935.inp -scrdir=/home/scr/guest1/
 Entering Link 1 = /home/scr/programs/g09/l1.exe PID=     18936.
  
 Copyright (c) 1988,1990,1992,1993,1995,1998,2003,2009, Gaussian, Inc.
                  All Rights Reserved.
  
 This is part of the Gaussian(R) 09 program.  It is based on
 the Gaussian(R) 03 system (copyright 2003, Gaussian, Inc.),
 the Gaussian(R) 98 system (copyright 1998, Gaussian, Inc.),
 the Gaussian(R) 94 system (copyright 1995, Gaussian, Inc.),
 the Gaussian 92(TM) system (copyright 1992, Gaussian, Inc.),
 the Gaussian 90(TM) system (copyright 1990, Gaussian, Inc.),
 the Gaussian 88(TM) system (copyright 1988, Gaussian, Inc.),
 the Gaussian 86(TM) system (copyright 1986, Carnegie Mellon
 University), and the Gaussian 82(TM) system (copyright 1983,
 Carnegie Mellon University). Gaussian is a federally registered
 trademark of Gaussian, Inc.
  
 This software contains proprietary and confidential information,
 including trade secrets, belonging to Gaussian, Inc.
  
 This software is provided under written license and may be
 used, copied, transmitted, or stored only in accord with that
 written license.
  
 The following legend is applicable only to US Government
 contracts under FAR:
  
                    RESTRICTED RIGHTS LEGEND
  
 Use, reproduction and disclosure by the US Government is
 subject to restrictions as set forth in subparagraphs (a)
 and (c) of the Commercial Computer Software - Restricted
 Rights clause in FAR 52.227-19.
  
 Gaussian, Inc.
 340 Quinnipiac St., Bldg. 40, Wallingford CT 06492
  
  
 ---------------------------------------------------------------
 Warning -- This program may not be used in any manner that
 competes with the business of Gaussian, Inc. or will provide
 assistance to any competitor of Gaussian, Inc.  The licensee
 of this program is prohibited from giving any competitor of
 Gaussian, Inc. access to this program.  By using this program,
 the user acknowledges that Gaussian, Inc. is engaged in the
 business of creating and licensing software in the field of
 computational chemistry and represents and warrants to the
 licensee that it is not a competitor of Gaussian, Inc. and that
 it will not use this program in any manner prohibited above.
 ---------------------------------------------------------------
  

 Cite this work as:
 Gaussian 09, Revision A.02,
 M. J. Frisch, G. W. Trucks, H. B. Schlegel, G. E. Scuseria, 
 M. A. Robb, J. R. Cheeseman, G. Scalmani, V. Barone, B. Mennucci, 
 G. A. Petersson, H. Nakatsuji, M. Caricato, X. Li, H. P. Hratchian, 
 A. F. Izmaylov, J. Bloino, G. Zheng, J. L. Sonnenberg, M. Hada, 
 M. Ehara, K. Toyota, R. Fukuda, J. Hasegawa, M. Ishida, T. Nakajima, 
 Y. Honda, O. Kitao, H. Nakai, T. Vreven, J. A. Montgomery, Jr., 
 J. E. Peralta, F. Ogliaro, M. Bearpark, J. J. Heyd, E. Brothers, 
 K. N. Kudin, V. N. Staroverov, R. Kobayashi, J. Normand, 
 K. Raghavachari, A. Rendell, J. C. Burant, S. S. Iyengar, J. Tomasi, 
 M. Cossi, N. Rega, J. M. Millam, M. Klene, J. E. Knox, J. B. Cross, 
 V. Bakken, C. Adamo, J. Jaramillo, R. Gomperts, R. E. Stratmann, 
 O. Yazyev, A. J. Austin, R. Cammi, C. Pomelli, J. W. Ochterski, 
 R. L. Martin, K. Morokuma, V. G. Zakrzewski, G. A. Voth, 
 P. Salvador, J. J. Dannenberg, S. Dapprich, A. D. Daniels, 
 O. Farkas, J. B. Foresman, J. V. Ortiz, J. Cioslowski, 
 and D. J. Fox, Gaussian, Inc., Wallingford CT, 2009.
 
 ******************************************
 Gaussian 09:  EM64L-G09RevA.02 11-Jun-2009
                17-Jun-2019 
 ******************************************
 %mem=7Gb
 %nproc=2
 Will use up to    2 processors via shared memory.
 ----------------------------------------------------------------------
 #PBEPBE/gen scf=(maxcycle=500,conver=3) NMR=GIAO Scrf=(solvent=Dichlor
 omethane)
 ----------------------------------------------------------------------
 1/38=1/1;
 2/12=2,17=6,18=5,40=1/2;
 3/5=7,11=2,16=1,25=1,30=1,70=2201,72=9,74=1009/1,2,8,3;
 4//1;
 5/5=2,6=3,7=500,38=5,53=9/2;
 8/6=1,10=90,11=11/1;
 10/13=100,45=16/2;
 6/7=2,8=2,9=2,10=2,28=1/1;
 99/9=1/99;
 Leave Link    1 at Mon Jun 17 21:18:41 2019, MaxMem=  939524096 cpu:       0.1
 (Enter /home/scr/programs/g09/l101.exe)
 -----------
 estrutura 6
 -----------
 Symbolic Z-matrix:
 Charge =  0 Multiplicity = 1
 Pt                   -0.13411  -0.02217  -0.05457 
 Sn                   -2.42007  -1.52537  -0.24211 
 Cl                   -3.48513  -1.89139   1.93539 
 Cl                   -4.39172  -0.87276  -1.5172 
 Cl                   -2.43439  -3.83742  -1.03312 
 P                    -1.31715   2.06686   0.16405 
 P                     1.17058  -2.04517  -0.07637 
 C                     2.99279  -2.00938   0.27191 
 C                     3.88403  -1.77932  -0.79136 
 C                     3.51266  -2.27502   1.54941 
 C                     5.26313  -1.84277  -0.58366 
 H                     3.50248  -1.5538   -1.78676 
 C                     4.89518  -2.32767   1.75455 
 H                     2.84819  -2.46698   2.39197 
 C                     5.77398  -2.1218    0.68825 
 H                     5.94131  -1.67756  -1.42429 
 H                     5.28208  -2.54856   2.75238 
 H                     6.85357  -2.18378   0.84601 
 C                     0.51493  -3.13379   1.26477 
 C                     0.233    -4.4995    1.10517 
 C                     0.30157  -2.53727   2.52244 
 C                    -0.23711  -5.25234   2.18589 
 H                     0.34954  -4.98095   0.13532 
 C                    -0.15961  -3.29425   3.60118 
 H                     0.48985  -1.47031   2.66103 
 C                    -0.42922  -4.65606   3.43502 
 H                    -0.46257  -6.31195   2.04339 
 H                    -0.32033  -2.8138    4.5692 
 H                    -0.80002  -5.2484    4.27507 
 C                     1.12875  -2.94836  -1.6787 
 C                     1.79452  -4.17943  -1.82979 
 C                     0.49685  -2.37286  -2.79486 
 C                     1.79023  -4.83621  -3.06149 
 H                     2.3281   -4.62664  -0.99149 
 C                     0.51399  -3.02291  -4.03267 
 H                    -0.00368  -1.40463  -2.70759 
 C                     1.15184  -4.25901  -4.16654 
 H                     2.30078  -5.79996  -3.16081 
 H                     0.03041  -2.55683  -4.89307 
 H                     1.163    -4.77103  -5.13247 
 C                    -3.17396   2.14101   0.12222 
 C                    -3.84831   2.66144  -0.99667 
 C                    -3.93162   1.67344   1.21016 
 C                    -5.2439    2.72616  -1.01731 
 H                    -3.29456   3.02306  -1.86225 
 C                    -5.32625   1.73274   1.18101 
 H                    -3.44753   1.25095   2.08967 
 C                    -5.98744   2.26307   0.07024 
 H                    -5.74874   3.14003  -1.89372 
 H                    -5.8962    1.35721   2.0341 
 H                    -7.07907   2.31228   0.05193 
 C                    -0.89019   3.2057   -1.21705 
 C                    -1.10384   4.59606  -1.17985 
 C                    -0.55146   2.60867  -2.44471 
 C                    -0.9503    5.36974  -2.33323 
 H                    -1.42559   5.08597  -0.26321 
 C                    -0.42829   3.38109  -3.6038 
 H                    -0.40407   1.52836  -2.50439 
 C                    -0.62013   4.76418  -3.54987 
 H                    -1.11145   6.44937  -2.28261 
 H                    -0.1805    2.8948   -4.55013 
 H                    -0.51836   5.36937  -4.45426 
 C                    -0.92701   2.72047   1.84954 
 C                    -0.57758   4.04196   2.16938 
 C                    -1.03604   1.78142   2.89537 
 C                    -0.35914   4.41388   3.50112 
 H                    -0.46252   4.80286   1.40012 
 C                    -0.82855   2.15904   4.22361 
 H                    -1.27459   0.7389    2.67266 
 C                    -0.49053   3.48026   4.53142 
 H                    -0.08642   5.44728   3.72886 
 H                    -0.92449   1.41341   5.01661 
 H                    -0.3238    3.77801   5.56943 
 C                     1.6051    1.07081   0.19163 
 C                     2.11388   1.33245   1.41253 
 H                     1.54267   1.07497   2.30902 
 C                     3.38316   2.03972   1.75375 
 O                     3.46353   2.82687   2.67488 
 O                     4.43238   1.68595   0.99523 
 C                     5.67898   2.36379   1.255 
 H                     5.96024   2.19633   2.3066 
 H                     5.52426   3.44773   1.12831 
 C                     6.72493   1.82473   0.3027 
 H                     7.68998   2.31906   0.49558 
 H                     6.85682   0.74097   0.43738 
 H                     6.44623   2.01067  -0.74609 
 C                     2.33042   1.47878  -1.05407 
 O                     2.50589   0.7513   -2.00983 
 O                     2.75483   2.75215  -0.99935 
 C                     3.70523   3.22202  -1.98187 
 H                     4.55229   3.61394  -1.40074 
 H                     4.04915   2.36485  -2.57537 
 C                     3.11569   4.3064   -2.8629 
 H                     2.28788   3.92069  -3.47388 
 H                     2.74245   5.15227  -2.2661 
 H                     3.89837   4.68388  -3.53952 
 
 NAtoms=     96 NQM=     96 NQMF=      0 NMic=      0 NMicF=      0 NTot=     96.
                    Isotopes and Nuclear Properties:
 (Nuclear quadrupole moments (NQMom) in fm**2, nuclear magnetic moments (NMagM)
  in nuclear magnetons)

  Atom         1           2           3           4           5           6           7           8           9          10
 IAtWgt=         195         118          35          35          35          31          31          12          12          12
 AtmWgt= 194.9648000 117.9018000  34.9688527  34.9688527  34.9688527  30.9737634  30.9737634  12.0000000  12.0000000  12.0000000
 NucSpn=           1           0           3           3           3           1           1           0           0           0
 AtZEff=   0.0000000   0.0000000   0.0000000   0.0000000   0.0000000   0.0000000   0.0000000   0.0000000   0.0000000   0.0000000
 NQMom=    0.0000000   0.0000000  -8.1650000  -8.1650000  -8.1650000   0.0000000   0.0000000   0.0000000   0.0000000   0.0000000
 NMagM=    0.6095000   0.0000000   0.8218740   0.8218740   0.8218740   1.1316000   1.1316000   0.0000000   0.0000000   0.0000000

  Atom        11          12          13          14          15          16          17          18          19          20
 IAtWgt=          12           1          12           1          12           1           1           1          12          12
 AtmWgt=  12.0000000   1.0078250  12.0000000   1.0078250  12.0000000   1.0078250   1.0078250   1.0078250  12.0000000  12.0000000
 NucSpn=           0           1           0           1           0           1           1           1           0           0
 AtZEff=   0.0000000   0.0000000   0.0000000   0.0000000   0.0000000   0.0000000   0.0000000   0.0000000   0.0000000   0.0000000
 NQMom=    0.0000000   0.0000000   0.0000000   0.0000000   0.0000000   0.0000000   0.0000000   0.0000000   0.0000000   0.0000000
 NMagM=    0.0000000   2.7928460   0.0000000   2.7928460   0.0000000   2.7928460   2.7928460   2.7928460   0.0000000   0.0000000

  Atom        21          22          23          24          25          26          27          28          29          30
 IAtWgt=          12          12           1          12           1          12           1           1           1          12
 AtmWgt=  12.0000000  12.0000000   1.0078250  12.0000000   1.0078250  12.0000000   1.0078250   1.0078250   1.0078250  12.0000000
 NucSpn=           0           0           1           0           1           0           1           1           1           0
 AtZEff=   0.0000000   0.0000000   0.0000000   0.0000000   0.0000000   0.0000000   0.0000000   0.0000000   0.0000000   0.0000000
 NQMom=    0.0000000   0.0000000   0.0000000   0.0000000   0.0000000   0.0000000   0.0000000   0.0000000   0.0000000   0.0000000
 NMagM=    0.0000000   0.0000000   2.7928460   0.0000000   2.7928460   0.0000000   2.7928460   2.7928460   2.7928460   0.0000000

  Atom        31          32          33          34          35          36          37          38          39          40
 IAtWgt=          12          12          12           1          12           1          12           1           1           1
 AtmWgt=  12.0000000  12.0000000  12.0000000   1.0078250  12.0000000   1.0078250  12.0000000   1.0078250   1.0078250   1.0078250
 NucSpn=           0           0           0           1           0           1           0           1           1           1
 AtZEff=   0.0000000   0.0000000   0.0000000   0.0000000   0.0000000   0.0000000   0.0000000   0.0000000   0.0000000   0.0000000
 NQMom=    0.0000000   0.0000000   0.0000000   0.0000000   0.0000000   0.0000000   0.0000000   0.0000000   0.0000000   0.0000000
 NMagM=    0.0000000   0.0000000   0.0000000   2.7928460   0.0000000   2.7928460   0.0000000   2.7928460   2.7928460   2.7928460

  Atom        41          42          43          44          45          46          47          48          49          50
 IAtWgt=          12          12          12          12           1          12           1          12           1           1
 AtmWgt=  12.0000000  12.0000000  12.0000000  12.0000000   1.0078250  12.0000000   1.0078250  12.0000000   1.0078250   1.0078250
 NucSpn=           0           0           0           0           1           0           1           0           1           1
 AtZEff=   0.0000000   0.0000000   0.0000000   0.0000000   0.0000000   0.0000000   0.0000000   0.0000000   0.0000000   0.0000000
 NQMom=    0.0000000   0.0000000   0.0000000   0.0000000   0.0000000   0.0000000   0.0000000   0.0000000   0.0000000   0.0000000
 NMagM=    0.0000000   0.0000000   0.0000000   0.0000000   2.7928460   0.0000000   2.7928460   0.0000000   2.7928460   2.7928460

  Atom        51          52          53          54          55          56          57          58          59          60
 IAtWgt=           1          12          12          12          12           1          12           1          12           1
 AtmWgt=   1.0078250  12.0000000  12.0000000  12.0000000  12.0000000   1.0078250  12.0000000   1.0078250  12.0000000   1.0078250
 NucSpn=           1           0           0           0           0           1           0           1           0           1
 AtZEff=   0.0000000   0.0000000   0.0000000   0.0000000   0.0000000   0.0000000   0.0000000   0.0000000   0.0000000   0.0000000
 NQMom=    0.0000000   0.0000000   0.0000000   0.0000000   0.0000000   0.0000000   0.0000000   0.0000000   0.0000000   0.0000000
 NMagM=    2.7928460   0.0000000   0.0000000   0.0000000   0.0000000   2.7928460   0.0000000   2.7928460   0.0000000   2.7928460

  Atom        61          62          63          64          65          66          67          68          69          70
 IAtWgt=           1           1          12          12          12          12           1          12           1          12
 AtmWgt=   1.0078250   1.0078250  12.0000000  12.0000000  12.0000000  12.0000000   1.0078250  12.0000000   1.0078250  12.0000000
 NucSpn=           1           1           0           0           0           0           1           0           1           0
 AtZEff=   0.0000000   0.0000000   0.0000000   0.0000000   0.0000000   0.0000000   0.0000000   0.0000000   0.0000000   0.0000000
 NQMom=    0.0000000   0.0000000   0.0000000   0.0000000   0.0000000   0.0000000   0.0000000   0.0000000   0.0000000   0.0000000
 NMagM=    2.7928460   2.7928460   0.0000000   0.0000000   0.0000000   0.0000000   2.7928460   0.0000000   2.7928460   0.0000000

  Atom        71          72          73          74          75          76          77          78          79          80
 IAtWgt=           1           1           1          12          12           1          12          16          16          12
 AtmWgt=   1.0078250   1.0078250   1.0078250  12.0000000  12.0000000   1.0078250  12.0000000  15.9949146  15.9949146  12.0000000
 NucSpn=           1           1           1           0           0           1           0           0           0           0
 AtZEff=   0.0000000   0.0000000   0.0000000   0.0000000   0.0000000   0.0000000   0.0000000   0.0000000   0.0000000   0.0000000
 NQMom=    0.0000000   0.0000000   0.0000000   0.0000000   0.0000000   0.0000000   0.0000000   0.0000000   0.0000000   0.0000000
 NMagM=    2.7928460   2.7928460   2.7928460   0.0000000   0.0000000   2.7928460   0.0000000   0.0000000   0.0000000   0.0000000

  Atom        81          82          83          84          85          86          87          88          89          90
 IAtWgt=           1           1          12           1           1           1          12          16          16          12
 AtmWgt=   1.0078250   1.0078250  12.0000000   1.0078250   1.0078250   1.0078250  12.0000000  15.9949146  15.9949146  12.0000000
 NucSpn=           1           1           0           1           1           1           0           0           0           0
 AtZEff=   0.0000000   0.0000000   0.0000000   0.0000000   0.0000000   0.0000000   0.0000000   0.0000000   0.0000000   0.0000000
 NQMom=    0.0000000   0.0000000   0.0000000   0.0000000   0.0000000   0.0000000   0.0000000   0.0000000   0.0000000   0.0000000
 NMagM=    2.7928460   2.7928460   0.0000000   2.7928460   2.7928460   2.7928460   0.0000000   0.0000000   0.0000000   0.0000000

  Atom        91          92          93          94          95          96
 IAtWgt=           1           1          12           1           1           1
 AtmWgt=   1.0078250   1.0078250  12.0000000   1.0078250   1.0078250   1.0078250
 NucSpn=           1           1           0           1           1           1
 AtZEff=   0.0000000   0.0000000   0.0000000   0.0000000   0.0000000   0.0000000
 NQMom=    0.0000000   0.0000000   0.0000000   0.0000000   0.0000000   0.0000000
 NMagM=    2.7928460   2.7928460   0.0000000   2.7928460   2.7928460   2.7928460
 Leave Link  101 at Mon Jun 17 21:18:41 2019, MaxMem=  939524096 cpu:       0.1
 (Enter /home/scr/programs/g09/l202.exe)
 Stoichiometry    C44H41Cl3O4P2PtSn
 Framework group  C1[X(C44H41Cl3O4P2PtSn)]
 Deg. of freedom   282
 Full point group                 C1      NOp   1
 Largest Abelian subgroup         C1      NOp   1
 Largest concise Abelian subgroup C1      NOp   1
                         Standard orientation:                         
 ---------------------------------------------------------------------
 Center     Atomic      Atomic             Coordinates (Angstroms)
 Number     Number       Type             X           Y           Z
 ---------------------------------------------------------------------
      1         78           0       -0.134113   -0.022168   -0.054572
      2         50           0       -2.420073   -1.525368   -0.242105
      3         17           0       -3.485131   -1.891386    1.935392
      4         17           0       -4.391722   -0.872757   -1.517204
      5         17           0       -2.434392   -3.837422   -1.033119
      6         15           0       -1.317154    2.066858    0.164046
      7         15           0        1.170579   -2.045174   -0.076373
      8          6           0        2.992785   -2.009378    0.271913
      9          6           0        3.884026   -1.779319   -0.791355
     10          6           0        3.512658   -2.275019    1.549405
     11          6           0        5.263127   -1.842766   -0.583664
     12          1           0        3.502478   -1.553799   -1.786764
     13          6           0        4.895179   -2.327668    1.754546
     14          1           0        2.848188   -2.466980    2.391965
     15          6           0        5.773977   -2.121804    0.688249
     16          1           0        5.941313   -1.677555   -1.424285
     17          1           0        5.282079   -2.548564    2.752382
     18          1           0        6.853572   -2.183784    0.846007
     19          6           0        0.514933   -3.133785    1.264774
     20          6           0        0.232996   -4.499501    1.105174
     21          6           0        0.301573   -2.537271    2.522438
     22          6           0       -0.237108   -5.252336    2.185891
     23          1           0        0.349536   -4.980951    0.135323
     24          6           0       -0.159606   -3.294254    3.601176
     25          1           0        0.489847   -1.470307    2.661026
     26          6           0       -0.429223   -4.656061    3.435018
     27          1           0       -0.462567   -6.311946    2.043389
     28          1           0       -0.320332   -2.813801    4.569200
     29          1           0       -0.800021   -5.248402    4.275073
     30          6           0        1.128750   -2.948357   -1.678702
     31          6           0        1.794523   -4.179431   -1.829793
     32          6           0        0.496854   -2.372861   -2.794859
     33          6           0        1.790228   -4.836207   -3.061490
     34          1           0        2.328098   -4.626639   -0.991488
     35          6           0        0.513991   -3.022906   -4.032669
     36          1           0       -0.003682   -1.404628   -2.707593
     37          6           0        1.151837   -4.259014   -4.166540
     38          1           0        2.300777   -5.799961   -3.160806
     39          1           0        0.030406   -2.556833   -4.893066
     40          1           0        1.163003   -4.771028   -5.132467
     41          6           0       -3.173956    2.141010    0.122224
     42          6           0       -3.848310    2.661436   -0.996672
     43          6           0       -3.931623    1.673437    1.210158
     44          6           0       -5.243896    2.726164   -1.017307
     45          1           0       -3.294557    3.023061   -1.862248
     46          6           0       -5.326250    1.732737    1.181008
     47          1           0       -3.447530    1.250950    2.089670
     48          6           0       -5.987443    2.263071    0.070240
     49          1           0       -5.748742    3.140028   -1.893721
     50          1           0       -5.896199    1.357206    2.034103
     51          1           0       -7.079074    2.312280    0.051933
     52          6           0       -0.890191    3.205704   -1.217051
     53          6           0       -1.103838    4.596063   -1.179848
     54          6           0       -0.551464    2.608667   -2.444712
     55          6           0       -0.950298    5.369742   -2.333227
     56          1           0       -1.425594    5.085970   -0.263208
     57          6           0       -0.428292    3.381093   -3.603795
     58          1           0       -0.404069    1.528359   -2.504390
     59          6           0       -0.620125    4.764183   -3.549869
     60          1           0       -1.111452    6.449373   -2.282608
     61          1           0       -0.180502    2.894804   -4.550127
     62          1           0       -0.518362    5.369365   -4.454261
     63          6           0       -0.927009    2.720467    1.849535
     64          6           0       -0.577584    4.041956    2.169383
     65          6           0       -1.036037    1.781417    2.895369
     66          6           0       -0.359144    4.413884    3.501117
     67          1           0       -0.462515    4.802858    1.400121
     68          6           0       -0.828551    2.159044    4.223611
     69          1           0       -1.274591    0.738899    2.672656
     70          6           0       -0.490531    3.480257    4.531419
     71          1           0       -0.086420    5.447282    3.728863
     72          1           0       -0.924486    1.413410    5.016611
     73          1           0       -0.323800    3.778006    5.569428
     74          6           0        1.605099    1.070814    0.191631
     75          6           0        2.113879    1.332446    1.412529
     76          1           0        1.542666    1.074971    2.309019
     77          6           0        3.383162    2.039723    1.753746
     78          8           0        3.463529    2.826871    2.674878
     79          8           0        4.432376    1.685951    0.995232
     80          6           0        5.678976    2.363790    1.255003
     81          1           0        5.960240    2.196326    2.306599
     82          1           0        5.524260    3.447732    1.128315
     83          6           0        6.724925    1.824725    0.302704
     84          1           0        7.689984    2.319063    0.495578
     85          1           0        6.856823    0.740965    0.437376
     86          1           0        6.446226    2.010668   -0.746086
     87          6           0        2.330420    1.478784   -1.054067
     88          8           0        2.505890    0.751304   -2.009827
     89          8           0        2.754832    2.752146   -0.999352
     90          6           0        3.705234    3.222022   -1.981865
     91          1           0        4.552293    3.613936   -1.400735
     92          1           0        4.049145    2.364846   -2.575366
     93          6           0        3.115693    4.306405   -2.862899
     94          1           0        2.287883    3.920685   -3.473876
     95          1           0        2.742454    5.152269   -2.266102
     96          1           0        3.898369    4.683878   -3.539516
 ---------------------------------------------------------------------
 Rotational constants (GHZ):      0.0459499      0.0429316      0.0325482
 Leave Link  202 at Mon Jun 17 21:18:41 2019, MaxMem=  939524096 cpu:       0.0
 (Enter /home/scr/programs/g09/l301.exe)
 General basis read from cards:  (5D, 7F)
 Centers:  12 14 16 17 18 23 25 27 28 29 34 36 38 39 40 45 47 49 50 51
 Centers:  56 58 60 61 62 67 69 71 72 73 76 81 82 84 85 86 91 92 94 95
 Centers:  96
 S 5 1.00
     Exponent=  2.8295215633D+02 Coefficients=  4.3000000000D-04
     Exponent=  8.7062201949D+01 Coefficients=  5.1000000000D-04
     Exponent=  2.6788369830D+01 Coefficients=  6.1600000000D-03
     Exponent=  8.2425753324D+00 Coefficients=  1.3030000000D-02
     Exponent=  2.5361770254D+00 Coefficients=  9.9490000000D-02
 S 1 1.00
     Exponent=  7.8036216165D-01 Coefficients=  1.0000000000D+00
 S 1 1.00
     Exponent=  2.4011143435D-01 Coefficients=  1.0000000000D+00
 P 1 1.00
     Exponent=  8.8150000000D-01 Coefficients=  1.0000000000D+00
 P 1 1.00
     Exponent=  1.7989200000D-01 Coefficients=  1.0000000000D+00
 ****
 Centers:   8  9 10 11 13 15 19 20 21 22 24 26 30 31 32 33 35 37 41 42
 Centers:  43 44 46 48 52 53 54 55 57 59 63 64 65 66 68 70 74 75 77 80
 Centers:  83 87 90 93
 S 6 1.00
     Exponent=  8.8461235339D+03 Coefficients=  5.3000000000D-04
     Exponent=  2.9487078446D+03 Coefficients=  7.7000000000D-04
     Exponent=  9.8290261488D+02 Coefficients=  4.0500000000D-03
     Exponent=  3.2763420496D+02 Coefficients=  1.4030000000D-02
     Exponent=  1.0921140165D+02 Coefficients=  5.3450000000D-02
     Exponent=  3.6403800551D+01 Coefficients=  1.7027000000D-01
 S 1 1.00
     Exponent=  1.2134600184D+01 Coefficients=  1.0000000000D+00
 S 1 1.00
     Exponent=  4.0448667279D+00 Coefficients=  1.0000000000D+00
 S 1 1.00
     Exponent=  1.3482889093D+00 Coefficients=  1.0000000000D+00
 S 1 1.00
     Exponent=  4.4942963643D-01 Coefficients=  1.0000000000D+00
 S 1 1.00
     Exponent=  1.4980987881D-01 Coefficients=  1.0000000000D+00
 P 4 1.00
     Exponent=  3.7294093393D+01 Coefficients=  3.9600000000D-03
     Exponent=  1.1475105659D+01 Coefficients=  1.8890000000D-02
     Exponent=  3.5308017414D+00 Coefficients=  9.4610000000D-02
     Exponent=  1.0864005358D+00 Coefficients=  3.1889000000D-01
 P 1 1.00
     Exponent=  3.3427708794D-01 Coefficients=  1.0000000000D+00
 P 1 1.00
     Exponent=  1.0285448860D-01 Coefficients=  1.0000000000D+00
 D 1 1.00
     Exponent=  4.7750000000D-01 Coefficients=  1.0000000000D+00
 D 1 1.00
     Exponent=  1.1998000000D-01 Coefficients=  1.0000000000D+00
 ****
 Centers:  78 79 88 89
 S 6 1.00
     Exponent=  1.6178118231D+04 Coefficients=  6.0000000000D-04
     Exponent=  5.3927060771D+03 Coefficients=  7.8000000000D-04
     Exponent=  1.7975686924D+03 Coefficients=  4.1000000000D-03
     Exponent=  5.9918956413D+02 Coefficients=  1.3880000000D-02
     Exponent=  1.9972985471D+02 Coefficients=  5.2770000000D-02
     Exponent=  6.6576618236D+01 Coefficients=  1.6924000000D-01
 S 1 1.00
     Exponent=  2.2192206079D+01 Coefficients=  1.0000000000D+00
 S 1 1.00
     Exponent=  7.3974020263D+00 Coefficients=  1.0000000000D+00
 S 1 1.00
     Exponent=  2.4658006754D+00 Coefficients=  1.0000000000D+00
 S 1 1.00
     Exponent=  8.2193355847D-01 Coefficients=  1.0000000000D+00
 S 1 1.00
     Exponent=  2.7397785282D-01 Coefficients=  1.0000000000D+00
 P 4 1.00
     Exponent=  7.3854398670D+01 Coefficients=  4.0200000000D-03
     Exponent=  2.2724430360D+01 Coefficients=  2.0130000000D-02
     Exponent=  6.9921324184D+00 Coefficients=  1.0470000000D-01
     Exponent=  2.1514253595D+00 Coefficients=  3.3605000000D-01
 P 1 1.00
     Exponent=  6.6197703370D-01 Coefficients=  1.0000000000D+00
 P 1 1.00
     Exponent=  2.0368524114D-01 Coefficients=  1.0000000000D+00
 D 1 1.00
     Exponent=  9.2880000000D-01 Coefficients=  1.0000000000D+00
 D 1 1.00
     Exponent=  2.2975000000D-01 Coefficients=  1.0000000000D+00
 ****
 Centers:   6  7
 S 7 1.00
     Exponent=  5.9538004301D+04 Coefficients=  9.5000000000D-04
     Exponent=  2.1650183382D+04 Coefficients=  6.1000000000D-04
     Exponent=  7.8727939572D+03 Coefficients=  3.7500000000D-03
     Exponent=  2.8628341663D+03 Coefficients=  9.6300000000D-03
     Exponent=  1.0410306059D+03 Coefficients=  3.2430000000D-02
     Exponent=  3.7855658397D+02 Coefficients=  9.9500000000D-02
     Exponent=  1.3765693962D+02 Coefficients=  2.6570000000D-01
 S 1 1.00
     Exponent=  5.0057068954D+01 Coefficients=  1.0000000000D+00
 S 1 1.00
     Exponent=  1.8202570529D+01 Coefficients=  1.0000000000D+00
 S 1 1.00
     Exponent=  6.6191165560D+00 Coefficients=  1.0000000000D+00
 S 1 1.00
     Exponent=  2.4069514749D+00 Coefficients=  1.0000000000D+00
 S 1 1.00
     Exponent=  8.7525508178D-01 Coefficients=  1.0000000000D+00
 S 1 1.00
     Exponent=  3.1827457519D-01 Coefficients=  1.0000000000D+00
 S 1 1.00
     Exponent=  1.1573620916D-01 Coefficients=  1.0000000000D+00
 S 1 1.00
     Exponent=  4.2085894240D-02 Coefficients=  1.0000000000D+00
 P 5 1.00
     Exponent=  4.8799672315D+02 Coefficients=  2.1600000000D-03
     Exponent=  1.6266557438D+02 Coefficients=  9.7900000000D-03
     Exponent=  5.4221858128D+01 Coefficients=  5.4850000000D-02
     Exponent=  1.8073952709D+01 Coefficients=  2.1770000000D-01
     Exponent=  6.0246509031D+00 Coefficients=  4.8978000000D-01
 P 1 1.00
     Exponent=  2.0082169677D+00 Coefficients=  1.0000000000D+00
 P 1 1.00
     Exponent=  6.6940565590D-01 Coefficients=  1.0000000000D+00
 P 1 1.00
     Exponent=  2.2313521863D-01 Coefficients=  1.0000000000D+00
 P 1 1.00
     Exponent=  7.4378406211D-02 Coefficients=  1.0000000000D+00
 P 1 1.00
     Exponent=  2.4792802070D-02 Coefficients=  1.0000000000D+00
 D 1 1.00
     Exponent=  3.5395000000D-01 Coefficients=  1.0000000000D+00
 D 1 1.00
     Exponent=  8.9098000000D-02 Coefficients=  1.0000000000D+00
 ****
 Centers:   3  4  5
 S 7 1.00
     Exponent=  7.7142817164D+04 Coefficients=  1.0600000000D-03
     Exponent=  2.8051933514D+04 Coefficients=  6.4000000000D-04
     Exponent=  1.0200703096D+04 Coefficients=  3.9600000000D-03
     Exponent=  3.7093465804D+03 Coefficients=  9.8300000000D-03
     Exponent=  1.3488533020D+03 Coefficients=  3.2690000000D-02
     Exponent=  4.9049210981D+02 Coefficients=  9.9520000000D-02
     Exponent=  1.7836076720D+02 Coefficients=  2.6555000000D-01
 S 1 1.00
     Exponent=  6.4858460801D+01 Coefficients=  1.0000000000D+00
 S 1 1.00
     Exponent=  2.3584894837D+01 Coefficients=  1.0000000000D+00
 S 1 1.00
     Exponent=  8.5763253951D+00 Coefficients=  1.0000000000D+00
 S 1 1.00
     Exponent=  3.1186637801D+00 Coefficients=  1.0000000000D+00
 S 1 1.00
     Exponent=  1.1340595564D+00 Coefficients=  1.0000000000D+00
 S 1 1.00
     Exponent=  4.1238529323D-01 Coefficients=  1.0000000000D+00
 S 1 1.00
     Exponent=  1.4995828845D-01 Coefficients=  1.0000000000D+00
 S 1 1.00
     Exponent=  5.4530286708D-02 Coefficients=  1.0000000000D+00
 P 5 1.00
     Exponent=  6.9498536057D+02 Coefficients=  2.0000000000D-03
     Exponent=  2.3166178686D+02 Coefficients=  8.9500000000D-03
     Exponent=  7.7220595619D+01 Coefficients=  5.1130000000D-02
     Exponent=  2.5740198540D+01 Coefficients=  2.1011000000D-01
     Exponent=  8.5800661799D+00 Coefficients=  4.9738000000D-01
 P 1 1.00
     Exponent=  2.8600220600D+00 Coefficients=  1.0000000000D+00
 P 1 1.00
     Exponent=  9.5334068665D-01 Coefficients=  1.0000000000D+00
 P 1 1.00
     Exponent=  3.1778022888D-01 Coefficients=  1.0000000000D+00
 P 1 1.00
     Exponent=  1.0592674296D-01 Coefficients=  1.0000000000D+00
 P 1 1.00
     Exponent=  3.5308914320D-02 Coefficients=  1.0000000000D+00
 D 1 1.00
     Exponent=  5.5696000000D-01 Coefficients=  1.0000000000D+00
 D 1 1.00
     Exponent=  1.5619100000D-01 Coefficients=  1.0000000000D+00
 ****
 Centers:   2
 S 8 1.00
     Exponent=  7.5448214551D+05 Coefficients=  4.4300000000D-03
     Exponent=  3.3532539800D+05 Coefficients=  1.9800000000D-03
     Exponent=  1.4903351022D+05 Coefficients=  9.0500000000D-03
     Exponent=  6.6237115655D+04 Coefficients=  4.8700000000D-03
     Exponent=  2.9438718069D+04 Coefficients=  2.0770000000D-02
     Exponent=  1.3083874697D+04 Coefficients=  3.2900000000D-02
     Exponent=  5.8150554210D+03 Coefficients=  7.7010000000D-02
     Exponent=  2.5844690760D+03 Coefficients=  1.5160000000D-01
 S 1 1.00
     Exponent=  1.1486529227D+03 Coefficients=  1.0000000000D+00
 S 1 1.00
     Exponent=  5.1051241008D+02 Coefficients=  1.0000000000D+00
 S 1 1.00
     Exponent=  2.2689440448D+02 Coefficients=  1.0000000000D+00
 S 1 1.00
     Exponent=  1.0084195755D+02 Coefficients=  1.0000000000D+00
 S 1 1.00
     Exponent=  4.4818647798D+01 Coefficients=  1.0000000000D+00
 S 1 1.00
     Exponent=  1.9919399021D+01 Coefficients=  1.0000000000D+00
 S 1 1.00
     Exponent=  8.8530662317D+00 Coefficients=  1.0000000000D+00
 S 1 1.00
     Exponent=  3.9346961030D+00 Coefficients=  1.0000000000D+00
 S 1 1.00
     Exponent=  1.7487538235D+00 Coefficients=  1.0000000000D+00
 S 1 1.00
     Exponent=  7.7722392158D-01 Coefficients=  1.0000000000D+00
 S 1 1.00
     Exponent=  3.4543285403D-01 Coefficients=  1.0000000000D+00
 S 1 1.00
     Exponent=  1.5352571290D-01 Coefficients=  1.0000000000D+00
 S 1 1.00
     Exponent=  6.8233650180D-02 Coefficients=  1.0000000000D+00
 S 1 1.00
     Exponent=  1.3478251887D-02 Coefficients=  1.0000000000D+00
 P 5 1.00
     Exponent=  1.0090658304D+04 Coefficients=  2.7500000000D-03
     Exponent=  4.0362633217D+03 Coefficients=  4.1800000000D-03
     Exponent=  1.6145053287D+03 Coefficients=  2.0890000000D-02
     Exponent=  6.4580213147D+02 Coefficients=  7.1370000000D-02
     Exponent=  2.5832085259D+02 Coefficients=  2.2613000000D-01
 P 1 1.00
     Exponent=  1.0332834104D+02 Coefficients=  1.0000000000D+00
 P 1 1.00
     Exponent=  4.1331336414D+01 Coefficients=  1.0000000000D+00
 P 1 1.00
     Exponent=  1.6532534566D+01 Coefficients=  1.0000000000D+00
 P 1 1.00
     Exponent=  6.6130138263D+00 Coefficients=  1.0000000000D+00
 P 1 1.00
     Exponent=  2.6452055305D+00 Coefficients=  1.0000000000D+00
 P 1 1.00
     Exponent=  1.0580822122D+00 Coefficients=  1.0000000000D+00
 P 1 1.00
     Exponent=  4.2323288488D-01 Coefficients=  1.0000000000D+00
 P 1 1.00
     Exponent=  1.6929315395D-01 Coefficients=  1.0000000000D+00
 P 1 1.00
     Exponent=  6.7717261581D-02 Coefficients=  1.0000000000D+00
 P 1 1.00
     Exponent=  2.7086904632D-02 Coefficients=  1.0000000000D+00
 P 1 1.00
     Exponent=  1.0834761853D-02 Coefficients=  1.0000000000D+00
 D 4 1.00
     Exponent=  5.5430250651D+02 Coefficients=  4.3700000000D-03
     Exponent=  2.0156454782D+02 Coefficients=  2.5110000000D-02
     Exponent=  7.3296199207D+01 Coefficients=  1.3316000000D-01
     Exponent=  2.6653163348D+01 Coefficients=  3.8900000000D-01
 D 1 1.00
     Exponent=  9.6920593993D+00 Coefficients=  1.0000000000D+00
 D 1 1.00
     Exponent=  3.5243852361D+00 Coefficients=  1.0000000000D+00
 D 1 1.00
     Exponent=  1.2815946313D+00 Coefficients=  1.0000000000D+00
 D 1 1.00
     Exponent=  4.6603441139D-01 Coefficients=  1.0000000000D+00
 D 1 1.00
     Exponent=  1.6946705869D-01 Coefficients=  1.0000000000D+00
 F 1 1.00
     Exponent=  1.3140000000D+00 Coefficients=  1.0000000000D+00
 F 1 1.00
     Exponent=  1.9993000000D-01 Coefficients=  1.0000000000D+00
 ****
 Centers:   1
 S 9 1.00
     Exponent=  2.1644816090D+06 Coefficients=  1.2320000000D-02
     Exponent=  1.0822408045D+06 Coefficients=  1.2970000000D-02
     Exponent=  5.4112040224D+05 Coefficients=  2.6370000000D-02
     Exponent=  2.7056020112D+05 Coefficients=  9.0400000000D-03
     Exponent=  1.3528010056D+05 Coefficients=  3.4980000000D-02
     Exponent=  6.7640050280D+04 Coefficients=  1.2220000000D-02
     Exponent=  3.3820025140D+04 Coefficients=  6.0520000000D-02
     Exponent=  1.6910012570D+04 Coefficients=  6.4930000000D-02
     Exponent=  8.4550062850D+03 Coefficients=  1.3819000000D-01
 S 1 1.00
     Exponent=  4.2275031425D+03 Coefficients=  1.0000000000D+00
 S 1 1.00
     Exponent=  2.1137515713D+03 Coefficients=  1.0000000000D+00
 S 1 1.00
     Exponent=  1.0568757856D+03 Coefficients=  1.0000000000D+00
 S 1 1.00
     Exponent=  5.2843789281D+02 Coefficients=  1.0000000000D+00
 S 1 1.00
     Exponent=  2.6421894641D+02 Coefficients=  1.0000000000D+00
 S 1 1.00
     Exponent=  1.3210947320D+02 Coefficients=  1.0000000000D+00
 S 1 1.00
     Exponent=  6.6054736602D+01 Coefficients=  1.0000000000D+00
 S 1 1.00
     Exponent=  3.3027368301D+01 Coefficients=  1.0000000000D+00
 S 1 1.00
     Exponent=  1.6513684150D+01 Coefficients=  1.0000000000D+00
 S 1 1.00
     Exponent=  8.2568420752D+00 Coefficients=  1.0000000000D+00
 S 1 1.00
     Exponent=  4.1284210376D+00 Coefficients=  1.0000000000D+00
 S 1 1.00
     Exponent=  2.0642105188D+00 Coefficients=  1.0000000000D+00
 S 1 1.00
     Exponent=  1.0321052594D+00 Coefficients=  1.0000000000D+00
 S 1 1.00
     Exponent=  5.1605262970D-01 Coefficients=  1.0000000000D+00
 S 1 1.00
     Exponent=  2.5802631485D-01 Coefficients=  1.0000000000D+00
 S 1 1.00
     Exponent=  1.2901315743D-01 Coefficients=  1.0000000000D+00
 S 1 1.00
     Exponent=  6.4506578713D-02 Coefficients=  1.0000000000D+00
 P 7 1.00
     Exponent=  3.2357915258D+04 Coefficients=  5.0200000000D-03
     Exponent=  1.4381295670D+04 Coefficients=  2.0200000000D-03
     Exponent=  6.3916869645D+03 Coefficients=  1.8070000000D-02
     Exponent=  2.8407497620D+03 Coefficients=  3.6620000000D-02
     Exponent=  1.2625554498D+03 Coefficients=  1.1172000000D-01
     Exponent=  5.6113575545D+02 Coefficients=  2.5586000000D-01
     Exponent=  2.4939366909D+02 Coefficients=  4.2608000000D-01
 P 1 1.00
     Exponent=  1.1084163071D+02 Coefficients=  1.0000000000D+00
 P 1 1.00
     Exponent=  4.9262946981D+01 Coefficients=  1.0000000000D+00
 P 1 1.00
     Exponent=  2.1894643103D+01 Coefficients=  1.0000000000D+00
 P 1 1.00
     Exponent=  9.7309524900D+00 Coefficients=  1.0000000000D+00
 P 1 1.00
     Exponent=  4.3248677733D+00 Coefficients=  1.0000000000D+00
 P 1 1.00
     Exponent=  1.9221634548D+00 Coefficients=  1.0000000000D+00
 P 1 1.00
     Exponent=  8.5429486881D-01 Coefficients=  1.0000000000D+00
 P 1 1.00
     Exponent=  3.7968660836D-01 Coefficients=  1.0000000000D+00
 P 1 1.00
     Exponent=  1.6874960372D-01 Coefficients=  1.0000000000D+00
 P 1 1.00
     Exponent=  7.4999823874D-02 Coefficients=  1.0000000000D+00
 P 1 1.00
     Exponent=  3.3333255055D-02 Coefficients=  1.0000000000D+00
 D 5 1.00
     Exponent=  1.9119003508D+03 Coefficients=  4.3300000000D-03
     Exponent=  7.6476014031D+02 Coefficients=  1.7780000000D-02
     Exponent=  3.0590405613D+02 Coefficients=  8.9710000000D-02
     Exponent=  1.2236162245D+02 Coefficients=  3.1123000000D-01
     Exponent=  4.8944648980D+01 Coefficients=  5.3206000000D-01
 D 1 1.00
     Exponent=  1.9577859592D+01 Coefficients=  1.0000000000D+00
 D 1 1.00
     Exponent=  7.8311438368D+00 Coefficients=  1.0000000000D+00
 D 1 1.00
     Exponent=  3.1324575347D+00 Coefficients=  1.0000000000D+00
 D 1 1.00
     Exponent=  1.2529830139D+00 Coefficients=  1.0000000000D+00
 D 1 1.00
     Exponent=  5.0119320556D-01 Coefficients=  1.0000000000D+00
 D 1 1.00
     Exponent=  2.0047728222D-01 Coefficients=  1.0000000000D+00
 D 1 1.00
     Exponent=  8.0190912889D-02 Coefficients=  1.0000000000D+00
 D 1 1.00
     Exponent=  3.2076365156D-02 Coefficients=  1.0000000000D+00
 F 4 1.00
     Exponent=  8.2289680979D+01 Coefficients=  6.1870000000D-02
     Exponent=  2.9923520356D+01 Coefficients=  2.4823000000D-01
     Exponent=  1.0881280130D+01 Coefficients=  4.9956000000D-01
     Exponent=  3.9568291380D+00 Coefficients=  4.0380000000D-01
 F 1 1.00
     Exponent=  1.4388469593D+00 Coefficients=  1.0000000000D+00
 F 1 1.00
     Exponent=  5.2321707610D-01 Coefficients=  1.0000000000D+00
 G 1 1.00
     Exponent=  2.6700000000D+00 Coefficients=  1.0000000000D+00
 G 1 1.00
     Exponent=  9.0960000000D-01 Coefficients=  1.0000000000D+00
 ****
 Ernie: Thresh=  0.10000D-02 Tol=  0.10000D-05 Strict=F.
 There are  1987 symmetry adapted basis functions of A   symmetry.
 Integral buffers will be    131072 words long.
 Raffenetti 2 integral format.
 Two-electron integral symmetry is turned on.
  1987 basis functions,  3178 primitive gaussians,  2135 cartesian basis functions
   273 alpha electrons      273 beta electrons
       nuclear repulsion energy     15735.7449142538 Hartrees.
 IExCor= 1009 DFT=T Ex=PBE Corr=PBE ExCW=0 ScaHFX=  0.000000
 ScaDFX=  1.000000  1.000000  1.000000  1.000000 ScalE2=  1.000000  1.000000
 IRadAn=      0 IRanWt=     -1 IRanGd=            0 ICorTp=0
 NAtoms=   96 NActive=   96 NUniq=   96 SFac= 7.50D-01 NAtFMM=   80 NAOKFM=T Big=T
 ------------------------------------------------------------------------------
 Polarizable Continuum Model (PCM)
 =================================
 Model                : PCM.
 Atomic radii         : UFF (Universal Force Field).
 Polarization charges : Total charges.
 Charge compensation  : None.
 Solution method      : Matrix inversion.
 Cavity type          : Scaled VdW (van der Waals Surface) (Alpha=1.100).
 Cavity algorithm     : GePol (No added spheres)
                        Default sphere list used, NSphG=   96.
                        Lebedev-Laikov grids with approx.  5.0 points / Ang**2.
                        Smoothing algorithm: Karplus/York (Gamma=1.0000).
                        Polarization charges: spherical gaussians, with
                                              point-specific exponents (IZeta= 3).
                        Self-potential: point-specific (ISelfS= 7).
                        Self-field    : sphere-specific E.n sum rule (ISelfD= 2).
 Solvent              : Dichloromethane, Eps=   8.930000 Eps(inf)=   2.028346
 ------------------------------------------------------------------------------
 GePol: Number of generator spheres                  =      96
 GePol: Total number of spheres                      =      96
 GePol: Number of exposed spheres                    =      96 (100.00%)
 GePol: Number of points                             =    6861
 GePol: Average weight of points                     =       0.13
 GePol: Minimum weight of points                     =   0.14D-10
 GePol: Maximum weight of points                     =    0.21838
 GePol: Number of points with low weight             =     528
 GePol: Fraction of low-weight points (<1% of avg)   =       7.70%
 GePol: Cavity surface area                          =    869.577 Ang**2
 GePol: Cavity volume                                =   1111.597 Ang**3
 Leave Link  301 at Mon Jun 17 21:18:41 2019, MaxMem=  939524096 cpu:       0.2
 (Enter /home/scr/programs/g09/l302.exe)
 NPDir=0 NMtPBC=     1 NCelOv=     1 NCel=       1 NClECP=     1 NCelD=      1
         NCelK=      1 NCelE2=     1 NClLst=     1 CellRange=     0.0.
 One-electron integrals computed using PRISM.
 NBasis=  1987 RedAO= T  NBF=  1987
 NBsUse=  1987 1.00D-06 NBFU=  1987
 Precomputing XC quadrature grid using
 IXCGrd= 2 IRadAn=           0 IRanWt=          -1 IRanGd=           0 AccXCQ= 1.00D-10.
 Defaulting to unpruned grid for atomic number  78.
 NRdTot=    6376 NPtTot=      838842 NUsed=      884735 NTot=      884767
 NSgBfM=  1769  1770  1776  1796  1800 NAtAll=    96    96.
 Leave Link  302 at Mon Jun 17 21:18:59 2019, MaxMem=  939524096 cpu:      36.0
 (Enter /home/scr/programs/g09/l308.exe)
 Leave Link  308 at Mon Jun 17 21:19:00 2019, MaxMem=  939524096 cpu:       3.0
 (Enter /home/scr/programs/g09/l303.exe)
 DipDrv:  MaxL=1.
 Leave Link  303 at Mon Jun 17 21:19:01 2019, MaxMem=  939524096 cpu:       1.6
 (Enter /home/scr/programs/g09/l401.exe)
 Harris functional with IExCor= 1009 diagonalized for initial guess.
 ExpMin= 1.08D-02 ExpMax= 2.16D+06 ExpMxC= 2.16D+06 IAcc=4 IRadAn=         0 AccDes= 0.00D+00
 HarFok:  IExCor= 1009 AccDes= 0.00D+00 IRadAn=         0 IDoV= 1
 ScaDFX=  1.000000  1.000000  1.000000  1.000000
 Defaulting to unpruned grid for atomic number  78.
 Defaulting to unpruned grid for atomic number  78.
 FoFCou: FMM=F IPFlag=           0 FMFlag=      100000 FMFlg1=        2001
         NFxFlg=           0 DoJE=T BraDBF=F KetDBF=T FulRan=T
         Omega=  0.000000  0.000000  1.000000  0.000000  0.000000 ICntrl=     500 IOpCl=  0
         NMat0=    1 NMatS0=    1 NMatT0=    0 NMatD0=    1 NMtDS0=    0 NMtDT0=    0
         I1Cent=           4 NGrid=           0.
 Petite list used in FoFCou.
 Harris En= -27170.7430042156    
 Initial guess orbital symmetries:
       Occupied  (A) (A) (A) (A) (A) (A) (A) (A) (A) (A) (A) (A)
                 (A) (A) (A) (A) (A) (A) (A) (A) (A) (A) (A) (A)
                 (A) (A) (A) (A) (A) (A) (A) (A) (A) (A) (A) (A)
                 (A) (A) (A) (A) (A) (A) (A) (A) (A) (A) (A) (A)
                 (A) (A) (A) (A) (A) (A) (A) (A) (A) (A) (A) (A)
                 (A) (A) (A) (A) (A) (A) (A) (A) (A) (A) (A) (A)
                 (A) (A) (A) (A) (A) (A) (A) (A) (A) (A) (A) (A)
                 (A) (A) (A) (A) (A) (A) (A) (A) (A) (A) (A) (A)
                 (A) (A) (A) (A) (A) (A) (A) (A) (A) (A) (A) (A)
                 (A) (A) (A) (A) (A) (A) (A) (A) (A) (A) (A) (A)
                 (A) (A) (A) (A) (A) (A) (A) (A) (A) (A) (A) (A)
                 (A) (A) (A) (A) (A) (A) (A) (A) (A) (A) (A) (A)
                 (A) (A) (A) (A) (A) (A) (A) (A) (A) (A) (A) (A)
                 (A) (A) (A) (A) (A) (A) (A) (A) (A) (A) (A) (A)
                 (A) (A) (A) (A) (A) (A) (A) (A) (A) (A) (A) (A)
                 (A) (A) (A) (A) (A) (A) (A) (A) (A) (A) (A) (A)
                 (A) (A) (A) (A) (A) (A) (A) (A) (A) (A) (A) (A)
                 (A) (A) (A) (A) (A) (A) (A) (A) (A) (A) (A) (A)
                 (A) (A) (A) (A) (A) (A) (A) (A) (A) (A) (A) (A)
                 (A) (A) (A) (A) (A) (A) (A) (A) (A) (A) (A) (A)
                 (A) (A) (A) (A) (A) (A) (A) (A) (A) (A) (A) (A)
                 (A) (A) (A) (A) (A) (A) (A) (A) (A) (A) (A) (A)
                 (A) (A) (A) (A) (A) (A) (A) (A) (A)
       Virtual   (A) (A) (A) (A) (A) (A) (A) (A) (A) (A) (A) (A)
                 (A) (A) (A) (A) (A) (A) (A) (A) (A) (A) (A) (A)
                 (A) (A) (A) (A) (A) (A) (A) (A) (A) (A) (A) (A)
                 (A) (A) (A) (A) (A) (A) (A) (A) (A) (A) (A) (A)
                 (A) (A) (A) (A) (A) (A) (A) (A) (A) (A) (A) (A)
                 (A) (A) (A) (A) (A) (A) (A) (A) (A) (A) (A) (A)
                 (A) (A) (A) (A) (A) (A) (A) (A) (A) (A) (A) (A)
                 (A) (A) (A) (A) (A) (A) (A) (A) (A) (A) (A) (A)
                 (A) (A) (A) (A) (A) (A) (A) (A) (A) (A) (A) (A)
                 (A) (A) (A) (A) (A) (A) (A) (A) (A) (A) (A) (A)
                 (A) (A) (A) (A) (A) (A) (A) (A) (A) (A) (A) (A)
                 (A) (A) (A) (A) (A) (A) (A) (A) (A) (A) (A) (A)
                 (A) (A) (A) (A) (A) (A) (A) (A) (A) (A) (A) (A)
                 (A) (A) (A) (A) (A) (A) (A) (A) (A) (A) (A) (A)
                 (A) (A) (A) (A) (A) (A) (A) (A) (A) (A) (A) (A)
                 (A) (A) (A) (A) (A) (A) (A) (A) (A) (A) (A) (A)
                 (A) (A) (A) (A) (A) (A) (A) (A) (A) (A) (A) (A)
                 (A) (A) (A) (A) (A) (A) (A) (A) (A) (A) (A) (A)
                 (A) (A) (A) (A) (A) (A) (A) (A) (A) (A) (A) (A)
                 (A) (A) (A) (A) (A) (A) (A) (A) (A) (A) (A) (A)
                 (A) (A) (A) (A) (A) (A) (A) (A) (A) (A) (A) (A)
                 (A) (A) (A) (A) (A) (A) (A) (A) (A) (A) (A) (A)
                 (A) (A) (A) (A) (A) (A) (A) (A) (A) (A) (A) (A)
                 (A) (A) (A) (A) (A) (A) (A) (A) (A) (A) (A) (A)
                 (A) (A) (A) (A) (A) (A) (A) (A) (A) (A) (A) (A)
                 (A) (A) (A) (A) (A) (A) (A) (A) (A) (A) (A) (A)
                 (A) (A) (A) (A) (A) (A) (A) (A) (A) (A) (A) (A)
                 (A) (A) (A) (A) (A) (A) (A) (A) (A) (A) (A) (A)
                 (A) (A) (A) (A) (A) (A) (A) (A) (A) (A) (A) (A)
                 (A) (A) (A) (A) (A) (A) (A) (A) (A) (A) (A) (A)
                 (A) (A) (A) (A) (A) (A) (A) (A) (A) (A) (A) (A)
                 (A) (A) (A) (A) (A) (A) (A) (A) (A) (A) (A) (A)
                 (A) (A) (A) (A) (A) (A) (A) (A) (A) (A) (A) (A)
                 (A) (A) (A) (A) (A) (A) (A) (A) (A) (A) (A) (A)
                 (A) (A) (A) (A) (A) (A) (A) (A) (A) (A) (A) (A)
                 (A) (A) (A) (A) (A) (A) (A) (A) (A) (A) (A) (A)
                 (A) (A) (A) (A) (A) (A) (A) (A) (A) (A) (A) (A)
                 (A) (A) (A) (A) (A) (A) (A) (A) (A) (A) (A) (A)
                 (A) (A) (A) (A) (A) (A) (A) (A) (A) (A) (A) (A)
                 (A) (A) (A) (A) (A) (A) (A) (A) (A) (A) (A) (A)
                 (A) (A) (A) (A) (A) (A) (A) (A) (A) (A) (A) (A)
                 (A) (A) (A) (A) (A) (A) (A) (A) (A) (A) (A) (A)
                 (A) (A) (A) (A) (A) (A) (A) (A) (A) (A) (A) (A)
                 (A) (A) (A) (A) (A) (A) (A) (A) (A) (A) (A) (A)
                 (A) (A) (A) (A) (A) (A) (A) (A) (A) (A) (A) (A)
                 (A) (A) (A) (A) (A) (A) (A) (A) (A) (A) (A) (A)
                 (A) (A) (A) (A) (A) (A) (A) (A) (A) (A) (A) (A)
                 (A) (A) (A) (A) (A) (A) (A) (A) (A) (A) (A) (A)
                 (A) (A) (A) (A) (A) (A) (A) (A) (A) (A) (A) (A)
                 (A) (A) (A) (A) (A) (A) (A) (A) (A) (A) (A) (A)
                 (A) (A) (A) (A) (A) (A) (A) (A) (A) (A) (A) (A)
                 (A) (A) (A) (A) (A) (A) (A) (A) (A) (A) (A) (A)
                 (A) (A) (A) (A) (A) (A) (A) (A) (A) (A) (A) (A)
                 (A) (A) (A) (A) (A) (A) (A) (A) (A) (A) (A) (A)
                 (A) (A) (A) (A) (A) (A) (A) (A) (A) (A) (A) (A)
                 (A) (A) (A) (A) (A) (A) (A) (A) (A) (A) (A) (A)
                 (A) (A) (A) (A) (A) (A) (A) (A) (A) (A) (A) (A)
                 (A) (A) (A) (A) (A) (A) (A) (A) (A) (A) (A) (A)
                 (A) (A) (A) (A) (A) (A) (A) (A) (A) (A) (A) (A)
                 (A) (A) (A) (A) (A) (A) (A) (A) (A) (A) (A) (A)
                 (A) (A) (A) (A) (A) (A) (A) (A) (A) (A) (A) (A)
                 (A) (A) (A) (A) (A) (A) (A) (A) (A) (A) (A) (A)
                 (A) (A) (A) (A) (A) (A) (A) (A) (A) (A) (A) (A)
                 (A) (A) (A) (A) (A) (A) (A) (A) (A) (A) (A) (A)
                 (A) (A) (A) (A) (A) (A) (A) (A) (A) (A) (A) (A)
                 (A) (A) (A) (A) (A) (A) (A) (A) (A) (A) (A) (A)
                 (A) (A) (A) (A) (A) (A) (A) (A) (A) (A) (A) (A)
                 (A) (A) (A) (A) (A) (A) (A) (A) (A) (A) (A) (A)
                 (A) (A) (A) (A) (A) (A) (A) (A) (A) (A) (A) (A)
                 (A) (A) (A) (A) (A) (A) (A) (A) (A) (A) (A) (A)
                 (A) (A) (A) (A) (A) (A) (A) (A) (A) (A) (A) (A)
                 (A) (A) (A) (A) (A) (A) (A) (A) (A) (A) (A) (A)
                 (A) (A) (A) (A) (A) (A) (A) (A) (A) (A) (A) (A)
                 (A) (A) (A) (A) (A) (A) (A) (A) (A) (A) (A) (A)
                 (A) (A) (A) (A) (A) (A) (A) (A) (A) (A) (A) (A)
                 (A) (A) (A) (A) (A) (A) (A) (A) (A) (A) (A) (A)
                 (A) (A) (A) (A) (A) (A) (A) (A) (A) (A) (A) (A)
                 (A) (A) (A) (A) (A) (A) (A) (A) (A) (A) (A) (A)
                 (A) (A) (A) (A) (A) (A) (A) (A) (A) (A) (A) (A)
                 (A) (A) (A) (A) (A) (A) (A) (A) (A) (A) (A) (A)
                 (A) (A) (A) (A) (A) (A) (A) (A) (A) (A) (A) (A)
                 (A) (A) (A) (A) (A) (A) (A) (A) (A) (A) (A) (A)
                 (A) (A) (A) (A) (A) (A) (A) (A) (A) (A) (A) (A)
                 (A) (A) (A) (A) (A) (A) (A) (A) (A) (A) (A) (A)
                 (A) (A) (A) (A) (A) (A) (A) (A) (A) (A) (A) (A)
                 (A) (A) (A) (A) (A) (A) (A) (A) (A) (A) (A) (A)
                 (A) (A) (A) (A) (A) (A) (A) (A) (A) (A) (A) (A)
                 (A) (A) (A) (A) (A) (A) (A) (A) (A) (A) (A) (A)
                 (A) (A) (A) (A) (A) (A) (A) (A) (A) (A) (A) (A)
                 (A) (A) (A) (A) (A) (A) (A) (A) (A) (A) (A) (A)
                 (A) (A) (A) (A) (A) (A) (A) (A) (A) (A) (A) (A)
                 (A) (A) (A) (A) (A) (A) (A) (A) (A) (A) (A) (A)
                 (A) (A) (A) (A) (A) (A) (A) (A) (A) (A) (A) (A)
                 (A) (A) (A) (A) (A) (A) (A) (A) (A) (A) (A) (A)
                 (A) (A) (A) (A) (A) (A) (A) (A) (A) (A) (A) (A)
                 (A) (A) (A) (A) (A) (A) (A) (A) (A) (A) (A) (A)
                 (A) (A) (A) (A) (A) (A) (A) (A) (A) (A) (A) (A)
                 (A) (A) (A) (A) (A) (A) (A) (A) (A) (A) (A) (A)
                 (A) (A) (A) (A) (A) (A) (A) (A) (A) (A) (A) (A)
                 (A) (A) (A) (A) (A) (A) (A) (A) (A) (A) (A) (A)
                 (A) (A) (A) (A) (A) (A) (A) (A) (A) (A) (A) (A)
                 (A) (A) (A) (A) (A) (A) (A) (A) (A) (A) (A) (A)
                 (A) (A) (A) (A) (A) (A) (A) (A) (A) (A) (A) (A)
                 (A) (A) (A) (A) (A) (A) (A) (A) (A) (A) (A) (A)
                 (A) (A) (A) (A) (A) (A) (A) (A) (A) (A) (A) (A)
                 (A) (A) (A) (A) (A) (A) (A) (A) (A) (A) (A) (A)
                 (A) (A) (A) (A) (A) (A) (A) (A) (A) (A) (A) (A)
                 (A) (A) (A) (A) (A) (A) (A) (A) (A) (A) (A) (A)
                 (A) (A) (A) (A) (A) (A) (A) (A) (A) (A) (A) (A)
                 (A) (A) (A) (A) (A) (A) (A) (A) (A) (A) (A) (A)
                 (A) (A) (A) (A) (A) (A) (A) (A) (A) (A) (A) (A)
                 (A) (A) (A) (A) (A) (A) (A) (A) (A) (A) (A) (A)
                 (A) (A) (A) (A) (A) (A) (A) (A) (A) (A) (A) (A)
                 (A) (A) (A) (A) (A) (A) (A) (A) (A) (A) (A) (A)
                 (A) (A) (A) (A) (A) (A) (A) (A) (A) (A) (A) (A)
                 (A) (A) (A) (A) (A) (A) (A) (A) (A) (A) (A) (A)
                 (A) (A) (A) (A) (A) (A) (A) (A) (A) (A) (A) (A)
                 (A) (A) (A) (A) (A) (A) (A) (A) (A) (A) (A) (A)
                 (A) (A) (A) (A) (A) (A) (A) (A) (A) (A) (A) (A)
                 (A) (A) (A) (A) (A) (A) (A) (A) (A) (A) (A) (A)
                 (A) (A) (A) (A) (A) (A) (A) (A) (A) (A) (A) (A)
                 (A) (A) (A) (A) (A) (A) (A) (A) (A) (A) (A) (A)
                 (A) (A) (A) (A) (A) (A) (A) (A) (A) (A) (A) (A)
                 (A) (A) (A) (A) (A) (A) (A) (A) (A) (A) (A) (A)
                 (A) (A) (A) (A) (A) (A) (A) (A) (A) (A) (A) (A)
                 (A) (A) (A) (A) (A) (A) (A) (A) (A) (A) (A) (A)
                 (A) (A) (A) (A) (A) (A) (A) (A) (A) (A) (A) (A)
                 (A) (A) (A) (A) (A) (A) (A) (A) (A) (A) (A) (A)
                 (A) (A) (A) (A) (A) (A) (A) (A) (A) (A) (A) (A)
                 (A) (A) (A) (A) (A) (A) (A) (A) (A) (A) (A) (A)
                 (A) (A) (A) (A) (A) (A) (A) (A) (A) (A) (A) (A)
                 (A) (A) (A) (A) (A) (A) (A) (A) (A) (A) (A) (A)
                 (A) (A) (A) (A) (A) (A) (A) (A) (A) (A) (A) (A)
                 (A) (A) (A) (A) (A) (A) (A) (A) (A) (A) (A) (A)
                 (A) (A) (A) (A) (A) (A) (A) (A) (A) (A) (A) (A)
                 (A) (A) (A) (A) (A) (A) (A) (A) (A) (A) (A) (A)
                 (A) (A) (A) (A) (A) (A) (A) (A) (A) (A) (A) (A)
                 (A) (A) (A) (A) (A) (A) (A) (A) (A) (A) (A) (A)
                 (A) (A) (A) (A) (A) (A) (A) (A) (A) (A) (A) (A)
                 (A) (A) (A) (A) (A) (A) (A) (A) (A) (A) (A) (A)
                 (A) (A) (A) (A) (A) (A) (A) (A) (A) (A) (A) (A)
                 (A) (A) (A) (A) (A) (A) (A) (A) (A) (A) (A) (A)
                 (A) (A) (A) (A) (A) (A) (A) (A) (A) (A)
 The electronic state of the initial guess is 1-A.
 Leave Link  401 at Mon Jun 17 21:20:46 2019, MaxMem=  939524096 cpu:     209.0
 (Enter /home/scr/programs/g09/l502.exe)
 Closed shell SCF:
 Requested convergence on RMS density matrix=1.00D-03 within 500 cycles.
 Requested convergence on MAX density matrix=1.00D-01.
 Requested convergence on             energy=1.00D-01.
 No special actions if energy rises.
 Using DIIS extrapolation, IDIIS=  1040.
 Integral symmetry usage will be decided dynamically.
       883858 words used for storage of precomputed grid.
 IEnd=    14840851 IEndB=    14840851 NGot=   939524096 MDV=   929494606
 LenX=   929494606 LenY=   924934246
 Fock matrices will be formed incrementally for  20 cycles.

 Cycle   1  Pass 1  IDiag  1:
 FoFCou: FMM=T IPFlag=           0 FMFlag=      100000 FMFlg1=        2001
         NFxFlg=           0 DoJE=T BraDBF=F KetDBF=F FulRan=T
         Omega=  0.000000  0.000000  1.000000  0.000000  0.000000 ICntrl=     500 IOpCl=  0
         NMat0=    1 NMatS0=    1 NMatT0=    0 NMatD0=    1 NMtDS0=    0 NMtDT0=    0
         I1Cent=           0 NGrid=           0.
 Symmetry not used in FoFCou.
 FMM levels:  10  Number of levels for PrismC:   9
 Defaulting to unpruned grid for atomic number  78.
 Defaulting to unpruned grid for atomic number  78.
 E= -27147.7321534611    
 DIIS: error= 1.66D-01 at cycle   1 NSaved=   1.
 NSaved= 1 IEnMin= 1 EnMin= -27147.7321534611     IErMin= 1 ErrMin= 1.66D-01
 ErrMax= 1.66D-01 EMaxC= 1.00D-01 BMatC= 3.49D+02 BMatP= 3.49D+02
 IDIUse=3 WtCom= 0.00D+00 WtEn= 1.00D+00
 Coeff-Com:  0.100D+01
 Coeff-En:   0.100D+01
 Coeff:      0.100D+01
 Gap=     0.665 Goal=   None    Shift=    0.000
 GapD=    0.665 DampG=2.000 DampE=0.125 DampFc=0.2500 IDamp=-1.
 Damping current iteration by 2.50D-01
 RMSDP=2.35D-02 MaxDP=5.51D+00              OVMax= 7.21D-01

 Cycle   2  Pass 1  IDiag  1:
 RMSU=  4.01D-03    CP:  1.11D+00
 E= -27149.1806556681     Delta-E=       -1.448502207000 Rises=F Damp=T
 DIIS: error= 1.21D-01 at cycle   2 NSaved=   2.
 NSaved= 2 IEnMin= 2 EnMin= -27149.1806556681     IErMin= 2 ErrMin= 1.21D-01
 ErrMax= 1.21D-01 EMaxC= 1.00D-01 BMatC= 1.69D+02 BMatP= 3.49D+02
 IDIUse=3 WtCom= 0.00D+00 WtEn= 1.00D+00
 Coeff-Com: -0.192D+01 0.292D+01
 Coeff-En:   0.270D+00 0.730D+00
 Coeff:      0.270D+00 0.730D+00
 Gap=     0.007 Goal=   None    Shift=    0.000
 RMSDP=6.79D-03 MaxDP=1.02D+00 DE=-1.45D+00 OVMax= 7.79D-01

 Cycle   3  Pass 1  IDiag  1:
 RMSU=  3.14D-03    CP:  8.75D-01  2.87D-01
 E= -27150.8411829665     Delta-E=       -1.660527298336 Rises=F Damp=F
 DIIS: error= 8.37D-02 at cycle   3 NSaved=   3.
 NSaved= 3 IEnMin= 3 EnMin= -27150.8411829665     IErMin= 3 ErrMin= 8.37D-02
 ErrMax= 8.37D-02 EMaxC= 1.00D-01 BMatC= 1.81D+01 BMatP= 1.69D+02
 IDIUse=3 WtCom= 1.63D-01 WtEn= 8.37D-01
 EnCoef did   100 forward-backward iterations
 Coeff-Com:  0.658D+00-0.710D+00 0.105D+01
 Coeff-En:   0.345D+00 0.775D-02 0.647D+00
 Coeff:      0.396D+00-0.109D+00 0.713D+00
 Gap=     0.095 Goal=   None    Shift=    0.000
 RMSDP=7.74D-03 MaxDP=1.43D+00 DE=-1.66D+00 OVMax= 9.20D-01

 Cycle   4  Pass 1  IDiag  1:
 RMSU=  4.10D-03    CP:  1.10D+00  5.71D-01  1.48D-01
 E= -27144.3073776113     Delta-E=        6.533805355182 Rises=F Damp=F
 DIIS: error= 5.23D-02 at cycle   4 NSaved=   4.
 NSaved= 4 IEnMin= 3 EnMin= -27150.8411829665     IErMin= 4 ErrMin= 5.23D-02
 ErrMax= 5.23D-02 EMaxC= 1.00D-01 BMatC= 9.75D+00 BMatP= 1.81D+01
 IDIUse=3 WtCom= 4.77D-01 WtEn= 5.23D-01
 EnCoef did     8 forward-backward iterations
 Coeff-Com:  0.430D+00-0.506D+00 0.607D+00 0.469D+00
 Coeff-En:   0.222D+00 0.000D+00 0.602D+00 0.176D+00
 Coeff:      0.321D+00-0.241D+00 0.604D+00 0.316D+00
 Gap=     0.013 Goal=   None    Shift=    0.000
 RMSDP=6.87D-03 MaxDP=1.33D+00 DE= 6.53D+00 OVMax= 7.77D-01

 Cycle   5  Pass 1  IDiag  1:
 RMSU=  1.24D-03    CP:  8.75D-01  1.94D-01  5.06D-01  9.33D-02
 E= -27153.3003188050     Delta-E=       -8.992941193712 Rises=F Damp=F
 DIIS: error= 1.32D-02 at cycle   5 NSaved=   5.
 NSaved= 5 IEnMin= 5 EnMin= -27153.3003188050     IErMin= 5 ErrMin= 1.32D-02
 ErrMax= 1.32D-02 EMaxC= 1.00D-01 BMatC= 1.13D+00 BMatP= 9.75D+00
 IDIUse=3 WtCom= 8.68D-01 WtEn= 1.32D-01
 EnCoef did     2 forward-backward iterations
 Coeff-Com: -0.296D-01 0.629D-01 0.153D+00 0.189D+00 0.625D+00
 Coeff-En:   0.000D+00 0.000D+00 0.182D-02 0.120D+00 0.878D+00
 Coeff:     -0.257D-01 0.546D-01 0.133D+00 0.180D+00 0.658D+00
 Gap=     0.162 Goal=   None    Shift=    0.000
 RMSDP=2.28D-03 MaxDP=2.75D-01 DE=-8.99D+00 OVMax= 3.60D-01

 Cycle   6  Pass 1  IDiag  1:
 RMSU=  9.18D-04    CP:  9.01D-01  1.60D-01  5.89D-01  9.14D-02 -2.16D-02
 E= -27153.7252911701     Delta-E=       -0.424972365166 Rises=F Damp=F
 DIIS: error= 6.42D-03 at cycle   6 NSaved=   6.
 NSaved= 6 IEnMin= 6 EnMin= -27153.7252911701     IErMin= 6 ErrMin= 6.42D-03
 ErrMax= 6.42D-03 EMaxC= 1.00D-01 BMatC= 4.57D-01 BMatP= 1.13D+00
 IDIUse=3 WtCom= 9.36D-01 WtEn= 6.42D-02
 Coeff-Com: -0.104D+00 0.146D+00-0.388D-03 0.533D-01 0.405D+00 0.501D+00
 Coeff-En:   0.000D+00 0.000D+00 0.000D+00 0.000D+00 0.345D+00 0.655D+00
 Coeff:     -0.978D-01 0.136D+00-0.363D-03 0.499D-01 0.401D+00 0.511D+00
 Gap=     0.115 Goal=   None    Shift=    0.000
 RMSDP=1.49D-03 MaxDP=1.90D-01 DE=-4.25D-01 OVMax= 1.49D-01

 Cycle   7  Pass 1  IDiag  1:
 RMSU=  5.69D-04    CP:  9.02D-01  1.95D-01  5.35D-01  1.56D-01  4.77D-01
                    CP:  4.27D-01
 E= -27154.0424708406     Delta-E=       -0.317179670448 Rises=F Damp=F
 DIIS: error= 4.11D-03 at cycle   7 NSaved=   7.
 NSaved= 7 IEnMin= 7 EnMin= -27154.0424708406     IErMin= 7 ErrMin= 4.11D-03
 ErrMax= 4.11D-03 EMaxC= 1.00D-01 BMatC= 1.26D-01 BMatP= 4.57D-01
 IDIUse=3 WtCom= 9.59D-01 WtEn= 4.11D-02
 Coeff-Com: -0.742D-01 0.101D+00-0.215D-01 0.880D-02 0.176D+00 0.373D+00
 Coeff-Com:  0.437D+00
 Coeff-En:   0.000D+00 0.000D+00 0.000D+00 0.000D+00 0.000D+00 0.229D+00
 Coeff-En:   0.771D+00
 Coeff:     -0.712D-01 0.967D-01-0.207D-01 0.843D-02 0.168D+00 0.367D+00
 Coeff:      0.451D+00
 Gap=     0.110 Goal=   None    Shift=    0.000
 RMSDP=5.98D-04 MaxDP=7.85D-02 DE=-3.17D-01 OVMax= 9.51D-02

 Cycle   8  Pass 1  IDiag  1:
 RMSU=  2.90D-04    CP:  8.88D-01  2.04D-01  5.42D-01  1.47D-01  5.19D-01
                    CP:  5.14D-01  5.51D-01
 E= -27154.1339102422     Delta-E=       -0.091439401600 Rises=F Damp=F
 DIIS: error= 1.13D-03 at cycle   8 NSaved=   8.
 NSaved= 8 IEnMin= 8 EnMin= -27154.1339102422     IErMin= 8 ErrMin= 1.13D-03
 ErrMax= 1.13D-03 EMaxC= 1.00D-01 BMatC= 2.03D-02 BMatP= 1.26D-01
 IDIUse=3 WtCom= 9.89D-01 WtEn= 1.13D-02
 Coeff-Com: -0.179D-01 0.239D-01-0.856D-02 0.314D-02 0.400D-01 0.149D+00
 Coeff-Com:  0.311D+00 0.500D+00
 Coeff-En:   0.000D+00 0.000D+00 0.000D+00 0.000D+00 0.000D+00 0.000D+00
 Coeff-En:   0.169D+00 0.831D+00
 Coeff:     -0.177D-01 0.236D-01-0.846D-02 0.310D-02 0.396D-01 0.147D+00
 Coeff:      0.309D+00 0.504D+00
 Gap=     0.104 Goal=   None    Shift=    0.000
 RMSDP=2.62D-04 MaxDP=3.33D-02 DE=-9.14D-02 OVMax= 2.98D-02

 Error on total polarization charges =  0.02465
 SCF Done:  E(RPBE-PBE) =  -27154.1339102     A.U. after    8 cycles
             Convg  =    0.2621D-03             -V/T =  2.0153
 KE= 2.674567450275D+04 PE=-9.568906328868D+04 EE= 2.605350996144D+04
 Leave Link  502 at Tue Jun 18 00:58:28 2019, MaxMem=  939524096 cpu:   26102.1
 (Enter /home/scr/programs/g09/l801.exe)
 Range of M.O.s used for correlation:     1  1987
 NBasis=  1987 NAE=   273 NBE=   273 NFC=     0 NFV=     0
 NROrb=   1987 NOA=   273 NOB=   273 NVA=  1714 NVB=  1714

 **** Warning!!: The largest alpha MO coefficient is  0.72438771D+02

 Leave Link  801 at Tue Jun 18 00:58:28 2019, MaxMem=  939524096 cpu:       0.1
 (Enter /home/scr/programs/g09/l1002.exe)
 Minotr:  Closed shell wavefunction.
 NEqPCM:  Using equilibrium solvation (IEInf=0, Eps=   8.9300, EpsInf=   2.0283)
          Direct CPHF calculation.
          Differentiating once with respect to magnetic field using GIAOs.
          Electric field/nuclear overlap derivatives assumed to be zero.
          Requested convergence is 1.0D-08 RMS, and 1.0D-07 maximum.
          Secondary convergence is 1.0D-12 RMS, and 1.0D-12 maximum.
          NewPWx=T KeepS1=F KeepF1=F KeepIn=T MapXYZ=F SortEE=F KeepMc=T.
          MDV=     939523324 using IRadAn=       2.
 Defaulting to unpruned grid for atomic number  78.
 Generate precomputed XC quadrature information.
          Solving linear equations simultaneously, MaxMat=      72.
 FoFCou: FMM=F IPFlag=           0 FMFlag=    10101102 FMFlg1=        2001
         NFxFlg=    40000000 DoJE=F BraDBF=F KetDBF=T FulRan=T
         Omega=  0.000000  0.000000  1.000000  0.000000  0.000000 ICntrl=    6100 IOpCl=  0
         NMat0=    1 NMatS0=    1 NMatT0=    0 NMatD0=    1 NMtDS0=    0 NMtDT0=    0
         I1Cent=           7 NGrid=        6957.
 Symmetry not used in FoFCou.
 Defaulting to unpruned grid for atomic number  78.
 Defaulting to unpruned grid for atomic number  78.
          There are     3 degrees of freedom in the 1st order CPHF.  IDoFFX=0.
      3 vectors produced by pass  0 Test12= 1.56D-11 3.33D-08 XBig12= 1.64D+04 7.38D+00.
 AX will form     3 AO Fock derivatives at one time.
 Inverted reduced A of dimension     3 with in-core refinement.
 Calculating GIAO nuclear magnetic shielding tensors.
 SCF GIAO Magnetic shielding tensor (ppm):
  1  Pt   Isotropic =  2883.7359   Anisotropy =  1175.8877
   XX=  3664.8448   YX=   -13.2037   ZX=   -25.5363
   XY=    56.7940   YY=  3479.8053   ZY=   -61.9725
   XZ=    74.5445   YZ=    69.2646   ZZ=  1506.5576
   Eigenvalues:  1506.2736  3477.2731  3667.6611
  2  Sn   Isotropic =  2176.4161   Anisotropy =   774.1735
   XX=  2487.9659   YX=   321.9388   ZX=     6.8842
   XY=   313.6799   YY=  2198.7712   ZY=    36.9730
   XZ=    -2.7757   YZ=   -35.5026   ZZ=  1842.5111
   Eigenvalues:  1842.5042  1994.2123  2692.5317
  3  Cl   Isotropic =   776.7823   Anisotropy =   303.2404
   XX=   746.1565   YX=    11.5465   ZX=  -127.2850
   XY=     9.5995   YY=   711.3358   ZY=   -57.2216
   XZ=  -158.0979   YZ=   -70.8762   ZZ=   872.8545
   Eigenvalues:   641.8076   709.5967   978.9425
  4  Cl   Isotropic =   791.0007   Anisotropy =   304.1288
   XX=   898.6177   YX=   -89.5370   ZX=   127.0068
   XY=   -73.8965   YY=   666.5398   ZY=   -14.0518
   XZ=   100.5620   YZ=   -16.7942   ZZ=   807.8445
   Eigenvalues:   637.5785   741.6703   993.7532
  5  Cl   Isotropic =   767.2671   Anisotropy =   261.3051
   XX=   635.6744   YX=    14.9056   ZX=    30.0953
   XY=    -5.5875   YY=   917.2167   ZY=    73.8371
   XZ=    20.0089   YZ=    61.1496   ZZ=   748.9102
   Eigenvalues:   630.0276   730.3031   941.4705
  6  P    Isotropic =   278.3885   Anisotropy =    66.0313
   XX=   265.2419   YX=   -25.6155   ZX=     0.8713
   XY=     0.5219   YY=   319.5111   ZY=     4.5379
   XZ=   -12.2459   YZ=   -13.4600   ZZ=   250.4124
   Eigenvalues:   247.4576   265.2985   322.4093
  7  P    Isotropic =   298.6290   Anisotropy =   101.5563
   XX=   347.4004   YX=    12.6962   ZX=    37.4496
   XY=     2.7882   YY=   325.2799   ZY=    52.3200
   XZ=     7.5208   YZ=    62.1200   ZZ=   223.2068
   Eigenvalues:   195.5637   333.9902   366.3332
  8  C    Isotropic =   141.9962   Anisotropy =   189.1132
   XX=   158.5297   YX=   -58.5869   ZX=    28.5119
   XY=     5.1743   YY=   230.0709   ZY=   116.5126
   XZ=    25.9685   YZ=    64.7086   ZZ=    37.3880
   Eigenvalues:    -6.0766   163.9935   268.0717
  9  C    Isotropic =   144.0995   Anisotropy =   346.6009
   XX=    40.1812   YX=    44.3744   ZX=    97.7888
   XY=    28.8891   YY=   343.3348   ZY=   106.0752
   XZ=     4.5768   YZ=    71.0330   ZZ=    48.7824
   Eigenvalues:   -10.7895    67.9212   375.1668
 10  C    Isotropic =   152.9434   Anisotropy =   375.8387
   XX=    56.3200   YX=    86.2568   ZX=   -40.5363
   XY=     9.9690   YY=   377.1439   ZY=    85.1041
   XZ=     8.8902   YZ=    91.6965   ZZ=    25.3665
   Eigenvalues:    -7.4621    62.7898   403.5026
 11  C    Isotropic =    -8.7996   Anisotropy =    58.3385
   XX=   -32.5996   YX=   -64.7932   ZX=    54.6674
   XY=     3.8050   YY=    -5.2553   ZY=    -7.7561
   XZ=    10.2830   YZ=    27.1471   ZZ=    11.4561
   Eigenvalues:   -66.1762     9.6846    30.0927
 12  H    Isotropic =    24.8137   Anisotropy =    17.4520
   XX=    35.2690   YX=    -4.8616   ZX=    -1.7609
   XY=     5.1436   YY=    18.5668   ZY=     1.3037
   XZ=    -6.7477   YZ=    -6.2433   ZZ=    20.6054
   Eigenvalues:    16.6050    21.3878    36.4484
 13  C    Isotropic =    -8.1600   Anisotropy =    58.7628
   XX=     5.6070   YX=   -34.1619   ZX=   -55.5069
   XY=    18.8378   YY=   -10.3283   ZY=    35.5787
   XZ=   -15.3378   YZ=   -42.2070   ZZ=   -19.7587
   Eigenvalues:   -46.1267    -9.3686    31.0152
 14  H    Isotropic =    25.5492   Anisotropy =    18.0280
   XX=    37.1326   YX=    -2.7641   ZX=    -2.8682
   XY=     2.9218   YY=    16.4147   ZY=    -6.8470
   XZ=     7.7195   YZ=    -3.0020   ZZ=    23.1004
   Eigenvalues:    13.7425    25.3373    37.5679
 15  C    Isotropic =   -35.9455   Anisotropy =    56.9181
   XX=   -76.2288   YX=   -28.2731   ZX=   -19.2628
   XY=    52.9245   YY=   -30.9044   ZY=     0.5633
   XZ=    -1.0547   YZ=   -10.4542   ZZ=    -0.7032
   Eigenvalues:   -80.3106   -29.5257     2.0000
 16  H    Isotropic =    17.4280   Anisotropy =    18.1237
   XX=    28.9788   YX=    -8.4553   ZX=    -0.6909
   XY=     0.9309   YY=     2.1319   ZY=    -4.2389
   XZ=    -0.9506   YZ=    -2.7525   ZZ=    21.1732
   Eigenvalues:     0.9816    21.7919    29.5104
 17  H    Isotropic =    17.7856   Anisotropy =    17.6483
   XX=    28.6483   YX=    -6.5870   ZX=    -1.1486
   XY=    -1.4107   YY=     3.9341   ZY=    -5.9660
   XZ=     1.9190   YZ=    -7.1247   ZZ=    20.7743
   Eigenvalues:     1.1997    22.6059    29.5511
 18  H    Isotropic =    15.9091   Anisotropy =    16.5679
   XX=    26.2899   YX=    -7.5872   ZX=    -1.8334
   XY=    -1.0110   YY=    -0.9240   ZY=    -6.5318
   XZ=     0.0483   YZ=    -5.9417   ZZ=    22.3615
   Eigenvalues:    -3.1432    23.9162    26.9544
 19  C    Isotropic =   136.8130   Anisotropy =   144.7346
   XX=   206.2072   YX=   -13.1592   ZX=    -9.4745
   XY=   -79.4136   YY=    96.4285   ZY=   -84.5712
   XZ=    24.0398   YZ=   -59.5600   ZZ=   107.8033
   Eigenvalues:    24.9267   152.2095   233.3027
 20  C    Isotropic =   170.4961   Anisotropy =   377.1415
   XX=   395.5760   YX=  -124.8744   ZX=    44.9362
   XY=   -31.4981   YY=     9.7998   ZY=   -54.9571
   XZ=    68.9460   YZ=    20.2516   ZZ=   106.1124
   Eigenvalues:    -5.8077    95.3722   421.9238
 21  C    Isotropic =   108.4451   Anisotropy =   315.5523
   XX=   298.5704   YX=   -53.5501   ZX=    88.8056
   XY=   -28.2986   YY=    19.9348   ZY=   -26.5587
   XZ=    31.4072   YZ=   -70.1635   ZZ=     6.8302
   Eigenvalues:   -36.6004    43.1225   318.8133
 22  C    Isotropic =   -43.4901   Anisotropy =   118.5357
   XX=   -99.7628   YX=    39.7183   ZX=   -27.9919
   XY=   -52.4311   YY=   -48.9426   ZY=   -15.7179
   XZ=     7.5421   YZ=    89.3520   ZZ=    18.2352
   Eigenvalues:  -100.8922   -65.1117    35.5337
 23  H    Isotropic =    24.6472   Anisotropy =    11.6189
   XX=    23.3558   YX=     4.8438   ZX=     1.0235
   XY=     0.9570   YY=    31.4109   ZY=    -4.4274
   XZ=     5.1703   YZ=     4.0196   ZZ=    19.1748
   Eigenvalues:    17.3498    24.1986    32.3931
 24  C    Isotropic =   -21.1847   Anisotropy =    76.3621
   XX=    -9.4004   YX=    11.1073   ZX=    16.7194
   XY=   -11.6203   YY=    19.3978   ZY=   -11.4639
   XZ=    45.6474   YZ=   -45.0345   ZZ=   -73.5514
   Eigenvalues:   -92.3639    -0.9134    29.7234
 25  H    Isotropic =    25.0569   Anisotropy =    11.6117
   XX=    24.9535   YX=    -3.2810   ZX=     1.1969
   XY=    -0.8044   YY=    18.8441   ZY=     1.5041
   XZ=     3.2754   YZ=    -6.8419   ZZ=    31.3731
   Eigenvalues:    17.9300    24.4427    32.7981
 26  C    Isotropic =   -52.0887   Anisotropy =    84.9971
   XX=    -7.0656   YX=    -3.3452   ZX=    13.5072
   XY=   -29.2671   YY=   -36.0372   ZY=    53.9019
   XZ=    48.5420   YZ=    82.9344   ZZ=  -113.1634
   Eigenvalues:  -161.0977     0.2555     4.5760
 27  H    Isotropic =    13.7936   Anisotropy =    20.2639
   XX=    -7.1214   YX=     7.3825   ZX=    -7.4178
   XY=     1.0286   YY=    25.3904   ZY=    -3.1441
   XZ=    -1.7168   YZ=    -0.2185   ZZ=    23.1116
   Eigenvalues:    -8.2540    22.3318    27.3028
 28  H    Isotropic =    15.2908   Anisotropy =    17.7550
   XX=    -1.5725   YX=     5.5700   ZX=    -5.1985
   XY=     5.7564   YY=    22.2867   ZY=    -0.5667
   XZ=     2.4439   YZ=    -4.2137   ZZ=    25.1581
   Eigenvalues:    -2.8726    21.6175    27.1274
 29  H    Isotropic =     9.8064   Anisotropy =    25.2672
   XX=   -18.0959   YX=    12.5461   ZX=   -11.0623
   XY=     4.3333   YY=    24.7855   ZY=     0.1222
   XZ=    -3.4584   YZ=     0.8826   ZZ=    22.7296
   Eigenvalues:   -20.8948    23.6627    26.6512
 30  C    Isotropic =   110.3925   Anisotropy =   103.8714
   XX=   167.0324   YX=     9.2738   ZX=    -8.8911
   XY=    58.2827   YY=    53.9013   ZY=     1.8996
   XZ=   -38.4734   YZ=    65.7398   ZZ=   110.2439
   Eigenvalues:    26.2829   125.2546   179.6401
 31  C    Isotropic =   153.9756   Anisotropy =   338.7232
   XX=   284.4865   YX=   124.7720   ZX=   -62.9024
   XY=   167.8281   YY=    90.0417   ZY=    -5.5257
   XZ=   -56.8633   YZ=   -68.3253   ZZ=    87.3987
   Eigenvalues:    11.3148    70.8211   379.7911
 32  C    Isotropic =    79.6352   Anisotropy =   294.6564
   XX=   189.2100   YX=   134.8597   ZX=   -54.8722
   XY=   125.2821   YY=    30.9989   ZY=   -19.4154
   XZ=   -80.8175   YZ=    19.8109   ZZ=    18.6967
   Eigenvalues:   -58.8753    21.7081   276.0728
 33  C    Isotropic =   -40.4024   Anisotropy =   113.5321
   XX=   -71.1463   YX=    32.9094   ZX=    29.2533
   XY=    -7.4341   YY=   -52.4616   ZY=     0.2430
   XZ=    61.4139   YZ=   -79.5198   ZZ=     2.4006
   Eigenvalues:  -109.1241   -47.3688    35.2856
 34  H    Isotropic =    22.2524   Anisotropy =    16.6162
   XX=    21.1201   YX=    -9.9109   ZX=    -3.4750
   XY=    -1.3751   YY=    28.7890   ZY=     7.5800
   XZ=    -0.5792   YZ=     1.7188   ZZ=    16.8481
   Eigenvalues:    15.2493    18.1780    33.3298
 35  C    Isotropic =   -32.1613   Anisotropy =    69.9714
   XX=   -20.4005   YX=     3.8679   ZX=   -22.7638
   XY=    -2.7898   YY=    -0.9979   ZY=    21.4328
   XZ=   -38.1624   YZ=    41.9438   ZZ=   -75.0853
   Eigenvalues:   -97.6326   -13.3375    14.4863
 36  H    Isotropic =    23.9811   Anisotropy =     9.6229
   XX=    23.3961   YX=    -2.1644   ZX=    -4.3783
   XY=     0.7618   YY=    19.7995   ZY=     0.0930
   XZ=    -1.8414   YZ=     2.6375   ZZ=    28.7478
   Eigenvalues:    19.5758    21.9712    30.3964
 37  C    Isotropic =   -29.8954   Anisotropy =   148.1436
   XX=    46.5309   YX=    31.2941   ZX=   -19.6868
   XY=    20.8489   YY=    -8.5779   ZY=   -69.7305
   XZ=   -12.1546   YZ=   -79.7038   ZZ=  -127.6390
   Eigenvalues:  -163.6860     5.1328    68.8671
 38  H    Isotropic =    12.1338   Anisotropy =    21.1755
   XX=    -2.4776   YX=   -15.5569   ZX=     3.6253
   XY=   -14.5596   YY=    16.4593   ZY=     5.4499
   XZ=     7.8027   YZ=     5.0638   ZZ=    22.4198
   Eigenvalues:   -12.4338    22.5845    26.2508
 39  H    Isotropic =    16.4707   Anisotropy =    15.9094
   XX=     6.4278   YX=    -8.5178   ZX=     3.4913
   XY=    -9.5189   YY=    19.0754   ZY=     4.1141
   XZ=     3.1301   YZ=     5.3243   ZZ=    23.9090
   Eigenvalues:     0.5997    21.7355    27.0770
 40  H    Isotropic =     8.4404   Anisotropy =    26.1337
   XX=   -11.1548   YX=   -18.2174   ZX=     9.6001
   XY=   -20.4775   YY=    15.5734   ZY=     5.9438
   XZ=     9.9467   YZ=     5.5719   ZZ=    20.9025
   Eigenvalues:   -24.1543    23.6125    25.8629
 41  C    Isotropic =   102.1184   Anisotropy =   277.6705
   XX=    17.0591   YX=    51.4065   ZX=     9.0806
   XY=   -15.4871   YY=   244.6353   ZY=    89.1847
   XZ=    -5.8520   YZ=   111.0278   ZZ=    44.6608
   Eigenvalues:     1.2024    17.9207   287.2320
 42  C    Isotropic =   104.6934   Anisotropy =   302.1789
   XX=    34.6173   YX=    63.9668   ZX=    18.7816
   XY=    10.6195   YY=   251.9821   ZY=   123.6410
   XZ=    29.0107   YZ=   102.7166   ZZ=    27.4808
   Eigenvalues:   -20.8742    28.8084   306.1459
 43  C    Isotropic =   115.6452   Anisotropy =   346.2564
   XX=    28.3463   YX=    61.6006   ZX=    42.6943
   XY=    32.5358   YY=   269.2962   ZY=   135.4248
   XZ=    -8.7318   YZ=   148.0353   ZZ=    49.2931
   Eigenvalues:   -20.8174    21.2702   346.4828
 44  C    Isotropic =     1.9139   Anisotropy =    75.3426
   XX=    -2.6621   YX=    -1.2312   ZX=   -67.8668
   XY=     5.2001   YY=    52.0585   ZY=    12.2367
   XZ=   -33.6110   YZ=    -7.0341   ZZ=   -43.6547
   Eigenvalues:   -77.9628    31.5622    52.1423
 45  H    Isotropic =    25.7179   Anisotropy =    16.6532
   XX=    35.8699   YX=    -1.8657   ZX=     1.2224
   XY=     0.2214   YY=    20.1407   ZY=    -3.4204
   XZ=     5.9352   YZ=    -2.2285   ZZ=    21.1429
   Eigenvalues:    17.6040    22.7296    36.8200
 46  C    Isotropic =    20.1904   Anisotropy =   112.0957
   XX=    -5.7267   YX=   -50.9292   ZX=    44.4085
   XY=   -19.7844   YY=    47.6447   ZY=    50.8893
   XZ=    23.2041   YZ=    67.9954   ZZ=    18.6531
   Eigenvalues:   -66.6903    32.3405    94.9208
 47  H    Isotropic =    24.2930   Anisotropy =    11.1661
   XX=    30.7495   YX=     0.4988   ZX=    -1.5513
   XY=     0.2703   YY=    21.4100   ZY=     2.6750
   XZ=    -5.0423   YZ=    -0.7894   ZZ=    20.7194
   Eigenvalues:    19.2558    21.8861    31.7370
 48  C    Isotropic =   -44.3440   Anisotropy =    96.0653
   XX=   -82.9989   YX=   -59.5681   ZX=   -30.7177
   XY=   -12.6114   YY=   -54.9665   ZY=   -31.6374
   XZ=   -19.0736   YZ=   -32.3867   ZZ=     4.9335
   Eigenvalues:  -119.8227   -32.9089    19.6996
 49  H    Isotropic =    21.3188   Anisotropy =    12.1618
   XX=    28.8724   YX=    -4.1396   ZX=    -1.4843
   XY=    -1.3776   YY=    15.2165   ZY=    -4.7720
   XZ=     0.3604   YZ=    -4.9817   ZZ=    19.8676
   Eigenvalues:    11.7325    22.7972    29.4267
 50  H    Isotropic =    21.9147   Anisotropy =    12.4556
   XX=    29.3501   YX=    -4.9239   ZX=    -0.8245
   XY=    -2.2092   YY=    15.3952   ZY=    -1.5838
   XZ=    -0.8098   YZ=    -2.6972   ZZ=    20.9988
   Eigenvalues:    13.8170    21.7086    30.2185
 51  H    Isotropic =    20.7290   Anisotropy =     9.6750
   XX=    26.3578   YX=    -4.3961   ZX=    -0.9265
   XY=    -2.0579   YY=    13.4771   ZY=    -4.1666
[...]
 Alpha virt. eigenvalues --    1.97990   1.98162   1.98674   1.99115   1.99342
 Alpha virt. eigenvalues --    1.99679   1.99795   2.00210   2.00925   2.00954
 Alpha virt. eigenvalues --    2.01317   2.01605   2.01824   2.02029   2.02163
 Alpha virt. eigenvalues --    2.02978   2.03212   2.03320   2.03710   2.04004
 Alpha virt. eigenvalues --    2.04375   2.04449   2.04553   2.04991   2.05128
 Alpha virt. eigenvalues --    2.05293   2.05551   2.05669   2.05942   2.06250
 Alpha virt. eigenvalues --    2.06599   2.07064   2.07525   2.07957   2.08140
 Alpha virt. eigenvalues --    2.08396   2.08728   2.08832   2.09025   2.09174
 Alpha virt. eigenvalues --    2.09780   2.09926   2.10196   2.10735   2.11217
 Alpha virt. eigenvalues --    2.11605   2.11731   2.12204   2.12621   2.12717
 Alpha virt. eigenvalues --    2.13215   2.13327   2.13817   2.14035   2.14439
 Alpha virt. eigenvalues --    2.14576   2.15214   2.15425   2.15573   2.16082
 Alpha virt. eigenvalues --    2.16393   2.16563   2.16978   2.17300   2.17518
 Alpha virt. eigenvalues --    2.17722   2.17980   2.18672   2.18829   2.18842
 Alpha virt. eigenvalues --    2.19442   2.19674   2.20095   2.20395   2.20580
 Alpha virt. eigenvalues --    2.20798   2.20894   2.21049   2.21368   2.21958
 Alpha virt. eigenvalues --    2.22040   2.22609   2.22836   2.23296   2.23921
 Alpha virt. eigenvalues --    2.24029   2.24567   2.24836   2.24941   2.25400
 Alpha virt. eigenvalues --    2.25809   2.26443   2.26693   2.27005   2.27146
 Alpha virt. eigenvalues --    2.27532   2.28291   2.28427   2.28860   2.29126
 Alpha virt. eigenvalues --    2.29768   2.30566   2.31007   2.31265   2.31558
 Alpha virt. eigenvalues --    2.31928   2.32185   2.32439   2.33034   2.33196
 Alpha virt. eigenvalues --    2.33674   2.33998   2.34350   2.34651   2.34923
 Alpha virt. eigenvalues --    2.35318   2.35838   2.36118   2.36410   2.36788
 Alpha virt. eigenvalues --    2.37056   2.37392   2.37951   2.38093   2.38261
 Alpha virt. eigenvalues --    2.38744   2.39098   2.39446   2.39634   2.39940
 Alpha virt. eigenvalues --    2.40382   2.40616   2.40941   2.41370   2.41482
 Alpha virt. eigenvalues --    2.42153   2.42625   2.42839   2.42965   2.43361
 Alpha virt. eigenvalues --    2.44037   2.44311   2.44597   2.45037   2.45259
 Alpha virt. eigenvalues --    2.45533   2.46222   2.46363   2.46540   2.47304
 Alpha virt. eigenvalues --    2.47808   2.48258   2.48536   2.49154   2.49225
 Alpha virt. eigenvalues --    2.50037   2.50392   2.50774   2.50985   2.51452
 Alpha virt. eigenvalues --    2.51799   2.52421   2.52938   2.53201   2.53468
 Alpha virt. eigenvalues --    2.54011   2.54431   2.54484   2.54799   2.55456
 Alpha virt. eigenvalues --    2.55796   2.56183   2.56651   2.56897   2.57444
 Alpha virt. eigenvalues --    2.57585   2.58292   2.58534   2.58992   2.59374
 Alpha virt. eigenvalues --    2.59778   2.60208   2.60620   2.61000   2.61081
 Alpha virt. eigenvalues --    2.61602   2.62219   2.62516   2.63080   2.63225
 Alpha virt. eigenvalues --    2.63609   2.63931   2.64192   2.64588   2.65018
 Alpha virt. eigenvalues --    2.65378   2.65580   2.66120   2.66523   2.66652
 Alpha virt. eigenvalues --    2.67211   2.68448   2.68566   2.68969   2.69739
 Alpha virt. eigenvalues --    2.70134   2.70451   2.70612   2.70791   2.71028
 Alpha virt. eigenvalues --    2.71529   2.71868   2.72434   2.72704   2.73119
 Alpha virt. eigenvalues --    2.73336   2.74185   2.74646   2.74909   2.75102
 Alpha virt. eigenvalues --    2.75286   2.75656   2.75906   2.76145   2.76229
 Alpha virt. eigenvalues --    2.76714   2.77294   2.77838   2.77961   2.78329
 Alpha virt. eigenvalues --    2.78370   2.78829   2.79352   2.79691   2.80791
 Alpha virt. eigenvalues --    2.81251   2.81518   2.81751   2.82195   2.82676
 Alpha virt. eigenvalues --    2.83442   2.83573   2.83732   2.84487   2.84609
 Alpha virt. eigenvalues --    2.85474   2.85994   2.86283   2.86603   2.86917
 Alpha virt. eigenvalues --    2.87313   2.87963   2.88612   2.89532   2.89859
 Alpha virt. eigenvalues --    2.90094   2.90442   2.90763   2.91482   2.92076
 Alpha virt. eigenvalues --    2.92489   2.92748   2.93405   2.93520   2.94174
 Alpha virt. eigenvalues --    2.94917   2.95178   2.95297   2.95669   2.96017
 Alpha virt. eigenvalues --    2.96539   2.97070   2.97324   2.97760   2.98243
 Alpha virt. eigenvalues --    2.98914   2.99047   2.99523   2.99862   3.00166
 Alpha virt. eigenvalues --    3.00582   3.00910   3.01097   3.01311   3.01534
 Alpha virt. eigenvalues --    3.02136   3.02538   3.02820   3.02996   3.03830
 Alpha virt. eigenvalues --    3.04446   3.06176   3.06533   3.07304   3.07891
 Alpha virt. eigenvalues --    3.07988   3.08423   3.09456   3.09616   3.10130
 Alpha virt. eigenvalues --    3.11053   3.11658   3.13277   3.13705   3.13971
 Alpha virt. eigenvalues --    3.14419   3.14612   3.15249   3.15377   3.15553
 Alpha virt. eigenvalues --    3.16291   3.16821   3.16928   3.17140   3.18138
 Alpha virt. eigenvalues --    3.18650   3.18747   3.19509   3.20341   3.20802
 Alpha virt. eigenvalues --    3.21319   3.22641   3.23034   3.23342   3.23744
 Alpha virt. eigenvalues --    3.24467   3.25062   3.25402   3.25607   3.25953
 Alpha virt. eigenvalues --    3.26770   3.27435   3.28349   3.29289   3.30382
 Alpha virt. eigenvalues --    3.31616   3.32171   3.32989   3.34101   3.34437
 Alpha virt. eigenvalues --    3.35660   3.35909   3.36612   3.37417   3.38143
 Alpha virt. eigenvalues --    3.38961   3.39233   3.40982   3.43342   3.45864
 Alpha virt. eigenvalues --    3.46938   3.47258   3.47774   3.48120   3.49277
 Alpha virt. eigenvalues --    3.50108   3.51063   3.52011   3.52645   3.53032
 Alpha virt. eigenvalues --    3.53361   3.54229   3.55320   3.55700   3.58178
 Alpha virt. eigenvalues --    3.62636   3.71368   3.71504   3.75339   3.78226
 Alpha virt. eigenvalues --    3.79247   3.82461   3.87876   3.94681   3.98480
 Alpha virt. eigenvalues --    4.02656   4.03950   4.06027   4.07700   4.12219
 Alpha virt. eigenvalues --    4.13125   4.14996   4.15494   4.16806   4.17054
 Alpha virt. eigenvalues --    4.18709   4.19439   4.20856   4.23028   4.23145
 Alpha virt. eigenvalues --    4.24067   4.25809   4.25977   4.26895   4.28366
 Alpha virt. eigenvalues --    4.29209   4.29763   4.30637   4.32218   4.33497
 Alpha virt. eigenvalues --    4.34395   4.35163   4.36874   4.37451   4.38228
 Alpha virt. eigenvalues --    4.39665   4.40389   4.40973   4.42272   4.42543
 Alpha virt. eigenvalues --    4.43421   4.44181   4.45424   4.46321   4.46819
 Alpha virt. eigenvalues --    4.48219   4.49065   4.50898   4.51708   4.52816
 Alpha virt. eigenvalues --    4.54359   4.55807   4.57661   4.59734   4.63067
 Alpha virt. eigenvalues --    4.68032   4.69565   4.76842   4.78544   4.78922
 Alpha virt. eigenvalues --    4.79381   4.79497   4.80129   4.80575   4.85738
 Alpha virt. eigenvalues --    5.56192   5.67266   5.74990   6.02502   6.19612
 Alpha virt. eigenvalues --    6.22857   6.64249   6.65847   6.66699   6.67234
 Alpha virt. eigenvalues --    6.68321   6.69579   6.72276   6.73178   6.73424
 Alpha virt. eigenvalues --    6.77393   6.77742   6.79822   6.81602   6.83116
 Alpha virt. eigenvalues --    6.83155   6.83837   6.84413   6.86222   6.87153
 Alpha virt. eigenvalues --    6.87971   6.90385   6.91082   6.92368   6.93426
 Alpha virt. eigenvalues --    6.94208   6.95317   6.95752   6.96555   6.97925
 Alpha virt. eigenvalues --    6.98994   6.99861   7.01154   7.01438   7.03483
 Alpha virt. eigenvalues --    7.06548   7.07649   7.09089   7.10703   7.11767
 Alpha virt. eigenvalues --    7.11920   7.12995   7.15960   7.17644   7.25917
 Alpha virt. eigenvalues --    7.26427   7.26874   7.27349   7.28554   7.29224
 Alpha virt. eigenvalues --    7.31221   7.75889   7.80788   7.81951   7.84153
 Alpha virt. eigenvalues --    7.87179   7.87697   8.49066   8.49649   8.50242
 Alpha virt. eigenvalues --    8.50775   8.51830   8.52009   8.53684   8.61631
 Alpha virt. eigenvalues --    8.70071   9.17216   9.85952   9.88574   9.91179
 Alpha virt. eigenvalues --    9.93924   9.96000   9.96101  10.00459  10.02819
 Alpha virt. eigenvalues --   10.07309  10.10544  10.13334  10.17876  10.18841
 Alpha virt. eigenvalues --   10.37417  14.22155  14.29986  15.71977  16.75148
 Alpha virt. eigenvalues --   16.86828  16.93361  16.96551  17.01589  17.05165
 Alpha virt. eigenvalues --   17.05520  17.05881  17.06380  17.07028  17.07551
 Alpha virt. eigenvalues --   17.08781  17.09071  17.10178  17.10682  17.12304
 Alpha virt. eigenvalues --   17.13128  17.14660  17.15043  17.15582  17.16525
 Alpha virt. eigenvalues --   17.17277  17.19586  17.20557  17.20847  17.20979
 Alpha virt. eigenvalues --   17.23610  17.24441  17.26463  17.27648  17.28134
 Alpha virt. eigenvalues --   17.28973  17.30267  17.31725  17.33107  17.33569
 Alpha virt. eigenvalues --   17.33925  17.34328  17.35137  17.35867  17.36665
 Alpha virt. eigenvalues --   17.37311  17.39654  17.41367  17.42887  17.44401
 Alpha virt. eigenvalues --   17.53673  21.22371  21.38049  21.42341  25.52581
 Alpha virt. eigenvalues --   25.60561  25.66347  26.31978  30.27587  30.35042
 Alpha virt. eigenvalues --   30.42602  30.54033  31.70307  31.72819  31.76129
 Alpha virt. eigenvalues --   31.79605  31.82600  43.00738  43.07062  43.09091
 Alpha virt. eigenvalues --   43.11099  43.23362  61.92107  61.98753  63.07995
 Alpha virt. eigenvalues --   78.07520  78.17664  78.23379  82.35264  86.29910
 Alpha virt. eigenvalues --   86.43254  86.46471  89.21471  89.26274  89.31755
 Alpha virt. eigenvalues --   89.32220  89.32607  89.33095  89.33439  89.34096
 Alpha virt. eigenvalues --   89.34701  89.35681  89.37034  89.37130  89.37849
 Alpha virt. eigenvalues --   89.39296  89.40518  89.40681  89.41515  89.41996
 Alpha virt. eigenvalues --   89.43113  89.44299  89.45581  89.46737  89.47140
 Alpha virt. eigenvalues --   89.49278  89.50400  89.52688  89.53548  89.54139
 Alpha virt. eigenvalues --   89.55307  89.56340  89.57502  89.59786  89.60408
 Alpha virt. eigenvalues --   89.60981  89.61992  89.62341  89.63165  89.64294
 Alpha virt. eigenvalues --   89.64437  89.65810  89.67917  89.68466  89.70012
 Alpha virt. eigenvalues --   89.80563 121.86469 121.92179 121.96071 163.04090
 Alpha virt. eigenvalues --  163.11977 163.19556 163.31796 239.25136 257.44824
 Alpha virt. eigenvalues --  332.25564 332.32505 428.86446 428.96955 428.99480
 Alpha virt. eigenvalues --  431.69204 431.79770 431.85831 590.23223 590.27636
 Alpha virt. eigenvalues --  590.30569 773.11133 839.644702068.700182530.01573
 Alpha virt. eigenvalues -- 5495.49088******************************
          Condensed to atoms (all electrons):
 Mulliken atomic charges:
              1
     1  Pt   0.184857
     2  Sn   0.286497
     3  Cl  -0.285948
     4  Cl  -0.202975
     5  Cl  -0.212724
     6  P    0.919644
     7  P    1.223429
     8  C   -1.112383
     9  C    0.694808
    10  C    0.298248
    11  C   -0.072462
    12  H    0.090531
    13  C   -0.130575
    14  H    0.077711
    15  C   -0.614792
    16  H    0.126415
    17  H    0.135386
    18  H    0.138018
    19  C   -0.992942
    20  C    0.161483
    21  C    0.660519
    22  C   -0.162761
    23  H    0.091401
    24  C    0.050810
    25  H    0.038204
    26  C   -0.545801
    27  H    0.138362
    28  H    0.129595
    29  H    0.145733
    30  C   -0.842396
    31  C    0.391839
    32  C    0.298857
    33  C    0.045875
    34  H    0.096820
    35  C   -0.165505
    36  H    0.073585
    37  C   -0.631106
    38  H    0.141235
    39  H    0.139085
    40  H    0.149419
    41  C   -1.098162
    42  C    0.394441
    43  C    0.279890
    44  C   -0.094819
    45  H    0.088026
    46  C   -0.117082
    47  H    0.080686
    48  C   -0.474428
    49  H    0.137141
    50  H    0.142402
    51  H    0.146427
    52  C   -0.693362
    53  C    0.185655
    54  C    0.530313
    55  C   -0.058356
    56  H    0.084709
    57  C   -0.064491
    58  H    0.037360
    59  C   -0.585223
    60  H    0.142651
    61  H    0.116110
    62  H    0.138459
    63  C   -0.579236
    64  C    0.112564
    65  C    0.527307
    66  C   -0.264739
    67  H    0.074315
    68  C    0.085482
    69  H    0.030018
    70  C   -0.525578
    71  H    0.142604
    72  H    0.135824
    73  H    0.152936
    74  C    0.531566
    75  C   -0.242943
    76  H    0.035018
    77  C   -0.336039
    78  O   -0.144939
    79  O   -0.026869
    80  C   -0.339906
    81  H    0.157497
    82  H    0.141322
    83  C   -0.092236
    84  H    0.137108
    85  H    0.080660
    86  H    0.101357
    87  C    0.054165
    88  O   -0.237809
    89  O   -0.125201
    90  C   -0.241088
    91  H    0.108769
    92  H    0.116704
    93  C   -0.177748
    94  H    0.087628
    95  H    0.106347
    96  H    0.140797
 Sum of Mulliken atomic charges =   0.00000
 Mulliken charges with hydrogens summed into heavy atoms:
              1
     1  Pt   0.184857
     2  Sn   0.286497
     3  Cl  -0.285948
     4  Cl  -0.202975
     5  Cl  -0.212724
     6  P    0.919644
     7  P    1.223429
     8  C   -1.112383
     9  C    0.785339
    10  C    0.375959
    11  C    0.053953
    13  C    0.004811
    15  C   -0.476774
    19  C   -0.992942
    20  C    0.252884
    21  C    0.698723
    22  C   -0.024399
    24  C    0.180405
    26  C   -0.400068
    30  C   -0.842396
    31  C    0.488658
    32  C    0.372442
    33  C    0.187110
    35  C   -0.026421
    37  C   -0.481686
    41  C   -1.098162
    42  C    0.482467
    43  C    0.360577
    44  C    0.042321
    46  C    0.025320
    48  C   -0.328001
    52  C   -0.693362
    53  C    0.270365
    54  C    0.567673
    55  C    0.084296
    57  C    0.051619
    59  C   -0.446764
    63  C   -0.579236
    64  C    0.186879
    65  C    0.557324
    66  C   -0.122134
    68  C    0.221305
    70  C   -0.372642
    74  C    0.531566
    75  C   -0.207926
    77  C   -0.336039
    78  O   -0.144939
    79  O   -0.026869
    80  C   -0.041087
    83  C    0.226889
    87  C    0.054165
    88  O   -0.237809
    89  O   -0.125201
    90  C   -0.015615
    93  C    0.157025
 Sum of Mulliken charges with hydrogens summed into heavy atoms =   0.00000
 Electronic spatial extent (au):  <R**2>=          37189.5042
 Charge=              0.0000 electrons
 Dipole moment (field-independent basis, Debye):
    X=             10.7322    Y=              7.1961    Z=             -1.3836  Tot=             12.9954
 Quadrupole moment (field-independent basis, Debye-Ang):
   XX=           -393.2802   YY=           -360.0217   ZZ=           -358.9035
   XY=            -36.0082   XZ=            -13.6472   YZ=            -20.5554
 Traceless Quadrupole moment (field-independent basis, Debye-Ang):
   XX=            -22.5450   YY=             10.7134   ZZ=             11.8316
   XY=            -36.0082   XZ=            -13.6472   YZ=            -20.5554
 Octapole moment (field-independent basis, Debye-Ang**2):
  XXX=            251.3985  YYY=             43.0962  ZZZ=            -38.5130  XYY=             57.3430
  XXY=            122.9928  XXZ=             -3.8742  XZZ=            -25.4427  YZZ=            -30.6525
  YYZ=            -82.5848  XYZ=             -0.7900
 Hexadecapole moment (field-independent basis, Debye-Ang**3):
 XXXX=         -18421.3723 YYYY=         -17780.4250 ZZZZ=          -8931.3648 XXXY=             -0.4998
 XXXZ=             42.8292 YYYX=             70.3452 YYYZ=           -330.5867 ZZZX=           -126.1756
 ZZZY=              1.2379 XXYY=          -6769.4310 XXZZ=          -5261.8237 YYZZ=          -4157.0491
 XXYZ=           -258.3576 YYXZ=           -243.3872 ZZXY=            -69.3224
 N-N= 1.573574491425D+04 E-N=-9.568952430539D+04  KE= 2.674567450275D+04
 Calculating spin-rotation constants.
 Leave Link  601 at Tue Jun 18 09:34:52 2019, MaxMem=  939524096 cpu:    2708.4
 (Enter /home/scr/programs/g09/l9999.exe)
 1\1\GINC-NEQC33\SP\RPBEPBE\Gen\C44H41Cl3O4P2Pt1Sn1\GUEST1\18-Jun-2019\
 0\\#PBEPBE/gen scf=(maxcycle=500,conver=3) NMR=GIAO Scrf=(solvent=Dich
 loromethane)\\estrutura 6\\0,1\Pt,0,-0.134113,-0.022168,-0.054572\Sn,0
 ,-2.420073,-1.525368,-0.242105\Cl,0,-3.485131,-1.891386,1.935392\Cl,0,
 -4.391722,-0.872757,-1.517204\Cl,0,-2.434392,-3.837422,-1.033119\P,0,-
 1.317154,2.066858,0.164046\P,0,1.170579,-2.045174,-0.076373\C,0,2.9927
 85,-2.009378,0.271913\C,0,3.884026,-1.779319,-0.791355\C,0,3.512658,-2
 .275019,1.549405\C,0,5.263127,-1.842766,-0.583664\H,0,3.502478,-1.5537
 99,-1.786764\C,0,4.895179,-2.327668,1.754546\H,0,2.848188,-2.46698,2.3
 91965\C,0,5.773977,-2.121804,0.688249\H,0,5.941313,-1.677555,-1.424285
 \H,0,5.282079,-2.548564,2.752382\H,0,6.853572,-2.183784,0.846007\C,0,0
 .514933,-3.133785,1.264774\C,0,0.232996,-4.499501,1.105174\C,0,0.30157
 3,-2.537271,2.522438\C,0,-0.237108,-5.252336,2.185891\H,0,0.349536,-4.
 980951,0.135323\C,0,-0.159606,-3.294254,3.601176\H,0,0.489847,-1.47030
 7,2.661026\C,0,-0.429223,-4.656061,3.435018\H,0,-0.462567,-6.311946,2.
 043389\H,0,-0.320332,-2.813801,4.5692\H,0,-0.800021,-5.248402,4.275073
 \C,0,1.12875,-2.948357,-1.678702\C,0,1.794523,-4.179431,-1.829793\C,0,
 0.496854,-2.372861,-2.794859\C,0,1.790228,-4.836207,-3.06149\H,0,2.328
 098,-4.626639,-0.991488\C,0,0.513991,-3.022906,-4.032669\H,0,-0.003682
 ,-1.404628,-2.707593\C,0,1.151837,-4.259014,-4.16654\H,0,2.300777,-5.7
 99961,-3.160806\H,0,0.030406,-2.556833,-4.893066\H,0,1.163003,-4.77102
 8,-5.132467\C,0,-3.173956,2.14101,0.122224\C,0,-3.84831,2.661436,-0.99
 6672\C,0,-3.931623,1.673437,1.210158\C,0,-5.243896,2.726164,-1.017307\
 H,0,-3.294557,3.023061,-1.862248\C,0,-5.32625,1.732737,1.181008\H,0,-3
 .44753,1.25095,2.08967\C,0,-5.987443,2.263071,0.07024\H,0,-5.748742,3.
 140028,-1.893721\H,0,-5.896199,1.357206,2.034103\H,0,-7.079074,2.31228
 ,0.051933\C,0,-0.890191,3.205704,-1.217051\C,0,-1.103838,4.596063,-1.1
 79848\C,0,-0.551464,2.608667,-2.444712\C,0,-0.950298,5.369742,-2.33322
 7\H,0,-1.425594,5.08597,-0.263208\C,0,-0.428292,3.381093,-3.603795\H,0
 ,-0.404069,1.528359,-2.50439\C,0,-0.620125,4.764183,-3.549869\H,0,-1.1
 11452,6.449373,-2.282608\H,0,-0.180502,2.894804,-4.550127\H,0,-0.51836
 2,5.369365,-4.454261\C,0,-0.927009,2.720467,1.849535\C,0,-0.577584,4.0
 41956,2.169383\C,0,-1.036037,1.781417,2.895369\C,0,-0.359144,4.413884,
 3.501117\H,0,-0.462515,4.802858,1.400121\C,0,-0.828551,2.159044,4.2236
 11\H,0,-1.274591,0.738899,2.672656\C,0,-0.490531,3.480257,4.531419\H,0
 ,-0.08642,5.447282,3.728863\H,0,-0.924486,1.41341,5.016611\H,0,-0.3238
 ,3.778006,5.569428\C,0,1.605099,1.070814,0.191631\C,0,2.113879,1.33244
 6,1.412529\H,0,1.542666,1.074971,2.309019\C,0,3.383162,2.039723,1.7537
 46\O,0,3.463529,2.826871,2.674878\O,0,4.432376,1.685951,0.995232\C,0,5
 .678976,2.36379,1.255003\H,0,5.96024,2.196326,2.306599\H,0,5.52426,3.4
 47732,1.128315\C,0,6.724925,1.824725,0.302704\H,0,7.689984,2.319063,0.
 495578\H,0,6.856823,0.740965,0.437376\H,0,6.446226,2.010668,-0.746086\
 C,0,2.33042,1.478784,-1.054067\O,0,2.50589,0.751304,-2.009827\O,0,2.75
 4832,2.752146,-0.999352\C,0,3.705234,3.222022,-1.981865\H,0,4.552293,3
 .613936,-1.400735\H,0,4.049145,2.364846,-2.575366\C,0,3.115693,4.30640
 5,-2.862899\H,0,2.287883,3.920685,-3.473876\H,0,2.742454,5.152269,-2.2
 66102\H,0,3.898369,4.683878,-3.539516\\Version=EM64L-G09RevA.02\State=
 1-A\HF=-27154.1339102\RMSD=2.621e-04\Dipole=4.2223923,2.8311582,-0.544
 3514\Quadrupole=-16.7616826,7.9651591,8.7965236,-26.7711821,-10.146372
 ,-15.2824356\PG=C01 [X(C44H41Cl3O4P2Pt1Sn1)]\\@


 ABOVE ALL I AM AN OPTIMIST FOR NUMBER THEORY,
 AND I HOLD THE HOPE THAT WE MAY NOT BE FAR FROM
 A TIME WHEN IRREFUTABLE ARITHMETIC WILL CELEBRATE
 ITS TRIUMPHS IN PHYSICS AND CHEMISTRY.
   -- HERMANN MINKOWSKI, 1905
 Job cpu time:  1 days  0 hours 31 minutes  8.9 seconds.
 File lengths (MBytes):  RWF=   2977 Int=      0 D2E=      0 Chk=    214 Scr=      1
 Normal termination of Gaussian 09 at Tue Jun 18 09:34:53 2019.
