 Entering Gaussian System, Link 0=g09
 Input=estrutura108.com
 Output=estrutura108.log
 Initial command:
 /scr/programas/g09/l1.exe "/scr/nqtcm/Gau-32034.inp" -scrdir="/scr/nqtcm/"
 Entering Link 1 = /scr/programas/g09/l1.exe PID=     32036.
  
 Copyright (c) 1988,1990,1992,1993,1995,1998,2003,2009,2013,
            Gaussian, Inc.  All Rights Reserved.
  
 This is part of the Gaussian(R) 09 program.  It is based on
 the Gaussian(R) 03 system (copyright 2003, Gaussian, Inc.),
 the Gaussian(R) 98 system (copyright 1998, Gaussian, Inc.),
 the Gaussian(R) 94 system (copyright 1995, Gaussian, Inc.),
 the Gaussian 92(TM) system (copyright 1992, Gaussian, Inc.),
 the Gaussian 90(TM) system (copyright 1990, Gaussian, Inc.),
 the Gaussian 88(TM) system (copyright 1988, Gaussian, Inc.),
 the Gaussian 86(TM) system (copyright 1986, Carnegie Mellon
 University), and the Gaussian 82(TM) system (copyright 1983,
 Carnegie Mellon University). Gaussian is a federally registered
 trademark of Gaussian, Inc.
  
 This software contains proprietary and confidential information,
 including trade secrets, belonging to Gaussian, Inc.
  
 This software is provided under written license and may be
 used, copied, transmitted, or stored only in accord with that
 written license.
  
 The following legend is applicable only to US Government
 contracts under FAR:
  
                    RESTRICTED RIGHTS LEGEND
  
 Use, reproduction and disclosure by the US Government is
 subject to restrictions as set forth in subparagraphs (a)
 and (c) of the Commercial Computer Software - Restricted
 Rights clause in FAR 52.227-19.
  
 Gaussian, Inc.
 340 Quinnipiac St., Bldg. 40, Wallingford CT 06492
  
  
 ---------------------------------------------------------------
 Warning -- This program may not be used in any manner that
 competes with the business of Gaussian, Inc. or will provide
 assistance to any competitor of Gaussian, Inc.  The licensee
 of this program is prohibited from giving any competitor of
 Gaussian, Inc. access to this program.  By using this program,
 the user acknowledges that Gaussian, Inc. is engaged in the
 business of creating and licensing software in the field of
 computational chemistry and represents and warrants to the
 licensee that it is not a competitor of Gaussian, Inc. and that
 it will not use this program in any manner prohibited above.
 ---------------------------------------------------------------
  

 Cite this work as:
 Gaussian 09, Revision D.01,
 M. J. Frisch, G. W. Trucks, H. B. Schlegel, G. E. Scuseria, 
 M. A. Robb, J. R. Cheeseman, G. Scalmani, V. Barone, B. Mennucci, 
 G. A. Petersson, H. Nakatsuji, M. Caricato, X. Li, H. P. Hratchian, 
 A. F. Izmaylov, J. Bloino, G. Zheng, J. L. Sonnenberg, M. Hada, 
 M. Ehara, K. Toyota, R. Fukuda, J. Hasegawa, M. Ishida, T. Nakajima, 
 Y. Honda, O. Kitao, H. Nakai, T. Vreven, J. A. Montgomery, Jr., 
 J. E. Peralta, F. Ogliaro, M. Bearpark, J. J. Heyd, E. Brothers, 
 K. N. Kudin, V. N. Staroverov, T. Keith, R. Kobayashi, J. Normand, 
 K. Raghavachari, A. Rendell, J. C. Burant, S. S. Iyengar, J. Tomasi, 
 M. Cossi, N. Rega, J. M. Millam, M. Klene, J. E. Knox, J. B. Cross, 
 V. Bakken, C. Adamo, J. Jaramillo, R. Gomperts, R. E. Stratmann, 
 O. Yazyev, A. J. Austin, R. Cammi, C. Pomelli, J. W. Ochterski, 
 R. L. Martin, K. Morokuma, V. G. Zakrzewski, G. A. Voth, 
 P. Salvador, J. J. Dannenberg, S. Dapprich, A. D. Daniels, 
 O. Farkas, J. B. Foresman, J. V. Ortiz, J. Cioslowski, 
 and D. J. Fox, Gaussian, Inc., Wallingford CT, 2013.
 
 ******************************************
 Gaussian 09:  EM64L-G09RevD.01 24-Apr-2013
                29-Nov-2019 
 ******************************************
 %mem=7Gb
 %nproc=4
 Will use up to    4 processors via shared memory.
 ----------------------------------------------------------------------
 #PBEPBE/gen scf=(maxcycle=500,conver=3) NMR=GIAO Scrf=(solvent=Dichlor
 omethane)
 ----------------------------------------------------------------------
 1/38=1/1;
 2/12=2,17=6,18=5,40=1/2;
 3/5=7,11=2,16=1,25=1,30=1,70=2201,72=9,74=1009/1,2,8,3;
 4//1;
 5/5=2,6=3,7=500,38=5,53=9/2;
 8/6=1,10=90,11=11/1;
 10/13=100,45=16/2;
 6/7=2,8=2,9=2,10=2,28=1/1;
 99/9=1/99;
 Leave Link    1 at Fri Nov 29 09:10:25 2019, MaxMem=   939524096 cpu:         0.2
 (Enter /scr/programas/g09/l101.exe)
 -------------
 estrutura 108
 -------------
 Symbolic Z-matrix:
 Charge =  0 Multiplicity = 1
 Pt                   -0.07148   0.31088  -0.12433 
 P                     2.30876   0.63977  -0.04243 
 C                     3.49654  -0.63167   0.60598 
 C                     4.19484  -0.48163   1.81583 
 C                     3.74573  -1.76814  -0.18477 
 C                     5.11747  -1.45019   2.22737 
 H                     4.03551   0.39582   2.44314 
 C                     4.66699  -2.73266   0.22961 
 H                     3.2212   -1.90611  -1.13219 
 C                     5.35601  -2.57792   1.43803 
 H                     5.65497  -1.31468   3.16973 
 H                     4.84458  -3.61006  -0.39701 
 H                     6.07991  -3.33149   1.75955 
 C                     2.57893   2.08495   1.07374 
 C                     3.25382   3.24933   0.68027 
 C                     2.0359    2.01727   2.37026 
 C                     3.38442   4.32235   1.56812 
 H                     3.66601   3.33479  -0.32586 
 C                     2.18187   3.083     3.25992 
 H                     1.48349   1.13043   2.68741 
 C                     2.85456   4.24407   2.85916 
 H                     3.90417   5.22526   1.24324 
 H                     1.75656   3.0127    4.26449 
 H                     2.95984   5.08348   3.55014 
 C                     3.11106   1.02805  -1.65977 
 C                     4.505     1.22396  -1.72103 
 C                     2.35941   1.08949  -2.8431 
 C                     5.12578   1.50644  -2.94043 
 H                     5.11602   1.147    -0.81852 
 C                     2.98529   1.3659   -4.06466 
 H                     1.28159   0.93671  -2.80509 
 C                     4.3643    1.58532  -4.11363 
 H                     6.20734   1.66126  -2.97425 
 H                     2.39231   1.40996  -4.98001 
 H                     4.85178   1.8062   -5.06732 
 Sn                   -0.00779  -2.17047   0.80668 
 P                    -2.45797   0.24517   0.00852 
 C                    -3.39636   1.7085   -0.62465 
 C                    -3.59452   1.83973  -2.01013 
 C                    -3.90109   2.69572   0.2338 
 C                    -4.29162   2.93294  -2.52499 
 H                    -3.20409   1.08548  -2.69591 
 C                    -4.60386   3.78959  -0.28529 
 H                    -3.75659   2.61883   1.31251 
 C                    -4.80028   3.91232  -1.66509 
 H                    -4.4343    3.01808  -3.60423 
 H                    -4.99732   4.5477    0.39419 
 H                    -5.35005   4.76603  -2.06761 
 C                    -3.24891  -1.10657  -0.981 
 C                    -4.61301  -1.44323  -0.89783 
 C                    -2.46245  -1.73296  -1.96611 
 C                    -5.15767  -2.41627  -1.73816 
 H                    -5.28123  -0.94455  -0.1947 
 C                    -3.01694  -2.69039  -2.82377 
 H                    -1.40947  -1.47046  -2.07219 
 C                    -4.36292  -3.04406  -2.7044 
 H                    -6.21651  -2.67169  -1.64635 
 H                    -2.38814  -3.15876  -3.58444 
 H                    -4.79662  -3.79773  -3.36693 
 C                    -2.92966   0.18142   1.80037 
 C                    -4.146    -0.31915   2.29788 
 C                    -2.01861   0.75041   2.71143 
 C                    -4.43218  -0.26757   3.66498 
 H                    -4.88566  -0.75347   1.62922 
 C                    -2.31331   0.81415   4.07652 
 H                    -1.07003   1.15074   2.34546 
 C                    -3.52078   0.30007   4.559 
 H                    -5.38113  -0.67091   4.03005 
 H                    -1.59162   1.26522   4.76326 
 H                    -3.74677   0.34146   5.62744 
 Br                   -0.17187   2.79556  -1.01283 
 Br                    0.82635  -3.72489  -1.17011 
 C                     1.32932  -2.71154   2.44808 
 H                     2.01415  -3.50128   2.10802 
 H                     1.91595  -1.85305   2.79838 
 H                     0.6992   -3.09753   3.26548 
 C                    -1.82578  -3.31375   1.26107 
 H                    -2.18663  -3.7961    0.34353 
 H                    -1.54368  -4.08115   1.99915 
 H                    -2.61626  -2.67461   1.67785 
 
 NAtoms=     80 NQM=       80 NQMF=       0 NMMI=      0 NMMIF=      0
                NMic=       0 NMicF=      0.
                    Isotopes and Nuclear Properties:
 (Nuclear quadrupole moments (NQMom) in fm**2, nuclear magnetic moments (NMagM)
  in nuclear magnetons)

  Atom         1           2           3           4           5           6           7           8           9          10
 IAtWgt=         195          31          12          12          12          12           1          12           1          12
 AtmWgt= 194.9648000  30.9737634  12.0000000  12.0000000  12.0000000  12.0000000   1.0078250  12.0000000   1.0078250  12.0000000
 NucSpn=           1           1           0           0           0           0           1           0           1           0
 AtZEff=   0.0000000   0.0000000   0.0000000   0.0000000   0.0000000   0.0000000   0.0000000   0.0000000   0.0000000   0.0000000
 NQMom=    0.0000000   0.0000000   0.0000000   0.0000000   0.0000000   0.0000000   0.0000000   0.0000000   0.0000000   0.0000000
 NMagM=    0.6095000   1.1316000   0.0000000   0.0000000   0.0000000   0.0000000   2.7928460   0.0000000   2.7928460   0.0000000
 AtZNuc=  78.0000000  15.0000000   6.0000000   6.0000000   6.0000000   6.0000000   1.0000000   6.0000000   1.0000000   6.0000000

  Atom        11          12          13          14          15          16          17          18          19          20
 IAtWgt=           1           1           1          12          12          12          12           1          12           1
 AtmWgt=   1.0078250   1.0078250   1.0078250  12.0000000  12.0000000  12.0000000  12.0000000   1.0078250  12.0000000   1.0078250
 NucSpn=           1           1           1           0           0           0           0           1           0           1
 AtZEff=   0.0000000   0.0000000   0.0000000   0.0000000   0.0000000   0.0000000   0.0000000   0.0000000   0.0000000   0.0000000
 NQMom=    0.0000000   0.0000000   0.0000000   0.0000000   0.0000000   0.0000000   0.0000000   0.0000000   0.0000000   0.0000000
 NMagM=    2.7928460   2.7928460   2.7928460   0.0000000   0.0000000   0.0000000   0.0000000   2.7928460   0.0000000   2.7928460
 AtZNuc=   1.0000000   1.0000000   1.0000000   6.0000000   6.0000000   6.0000000   6.0000000   1.0000000   6.0000000   1.0000000

  Atom        21          22          23          24          25          26          27          28          29          30
 IAtWgt=          12           1           1           1          12          12          12          12           1          12
 AtmWgt=  12.0000000   1.0078250   1.0078250   1.0078250  12.0000000  12.0000000  12.0000000  12.0000000   1.0078250  12.0000000
 NucSpn=           0           1           1           1           0           0           0           0           1           0
 AtZEff=   0.0000000   0.0000000   0.0000000   0.0000000   0.0000000   0.0000000   0.0000000   0.0000000   0.0000000   0.0000000
 NQMom=    0.0000000   0.0000000   0.0000000   0.0000000   0.0000000   0.0000000   0.0000000   0.0000000   0.0000000   0.0000000
 NMagM=    0.0000000   2.7928460   2.7928460   2.7928460   0.0000000   0.0000000   0.0000000   0.0000000   2.7928460   0.0000000
 AtZNuc=   6.0000000   1.0000000   1.0000000   1.0000000   6.0000000   6.0000000   6.0000000   6.0000000   1.0000000   6.0000000

  Atom        31          32          33          34          35          36          37          38          39          40
 IAtWgt=           1          12           1           1           1         118          31          12          12          12
 AtmWgt=   1.0078250  12.0000000   1.0078250   1.0078250   1.0078250 117.9018000  30.9737634  12.0000000  12.0000000  12.0000000
 NucSpn=           1           0           1           1           1           0           1           0           0           0
 AtZEff=   0.0000000   0.0000000   0.0000000   0.0000000   0.0000000   0.0000000   0.0000000   0.0000000   0.0000000   0.0000000
 NQMom=    0.0000000   0.0000000   0.0000000   0.0000000   0.0000000   0.0000000   0.0000000   0.0000000   0.0000000   0.0000000
 NMagM=    2.7928460   0.0000000   2.7928460   2.7928460   2.7928460   0.0000000   1.1316000   0.0000000   0.0000000   0.0000000
 AtZNuc=   1.0000000   6.0000000   1.0000000   1.0000000   1.0000000  50.0000000  15.0000000   6.0000000   6.0000000   6.0000000

  Atom        41          42          43          44          45          46          47          48          49          50
 IAtWgt=          12           1          12           1          12           1           1           1          12          12
 AtmWgt=  12.0000000   1.0078250  12.0000000   1.0078250  12.0000000   1.0078250   1.0078250   1.0078250  12.0000000  12.0000000
 NucSpn=           0           1           0           1           0           1           1           1           0           0
 AtZEff=   0.0000000   0.0000000   0.0000000   0.0000000   0.0000000   0.0000000   0.0000000   0.0000000   0.0000000   0.0000000
 NQMom=    0.0000000   0.0000000   0.0000000   0.0000000   0.0000000   0.0000000   0.0000000   0.0000000   0.0000000   0.0000000
 NMagM=    0.0000000   2.7928460   0.0000000   2.7928460   0.0000000   2.7928460   2.7928460   2.7928460   0.0000000   0.0000000
 AtZNuc=   6.0000000   1.0000000   6.0000000   1.0000000   6.0000000   1.0000000   1.0000000   1.0000000   6.0000000   6.0000000

  Atom        51          52          53          54          55          56          57          58          59          60
 IAtWgt=          12          12           1          12           1          12           1           1           1          12
 AtmWgt=  12.0000000  12.0000000   1.0078250  12.0000000   1.0078250  12.0000000   1.0078250   1.0078250   1.0078250  12.0000000
 NucSpn=           0           0           1           0           1           0           1           1           1           0
 AtZEff=   0.0000000   0.0000000   0.0000000   0.0000000   0.0000000   0.0000000   0.0000000   0.0000000   0.0000000   0.0000000
 NQMom=    0.0000000   0.0000000   0.0000000   0.0000000   0.0000000   0.0000000   0.0000000   0.0000000   0.0000000   0.0000000
 NMagM=    0.0000000   0.0000000   2.7928460   0.0000000   2.7928460   0.0000000   2.7928460   2.7928460   2.7928460   0.0000000
 AtZNuc=   6.0000000   6.0000000   1.0000000   6.0000000   1.0000000   6.0000000   1.0000000   1.0000000   1.0000000   6.0000000

  Atom        61          62          63          64          65          66          67          68          69          70
 IAtWgt=          12          12          12           1          12           1          12           1           1           1
 AtmWgt=  12.0000000  12.0000000  12.0000000   1.0078250  12.0000000   1.0078250  12.0000000   1.0078250   1.0078250   1.0078250
 NucSpn=           0           0           0           1           0           1           0           1           1           1
 AtZEff=   0.0000000   0.0000000   0.0000000   0.0000000   0.0000000   0.0000000   0.0000000   0.0000000   0.0000000   0.0000000
 NQMom=    0.0000000   0.0000000   0.0000000   0.0000000   0.0000000   0.0000000   0.0000000   0.0000000   0.0000000   0.0000000
 NMagM=    0.0000000   0.0000000   0.0000000   2.7928460   0.0000000   2.7928460   0.0000000   2.7928460   2.7928460   2.7928460
 AtZNuc=   6.0000000   6.0000000   6.0000000   1.0000000   6.0000000   1.0000000   6.0000000   1.0000000   1.0000000   1.0000000

  Atom        71          72          73          74          75          76          77          78          79          80
 IAtWgt=          79          79          12           1           1           1          12           1           1           1
 AtmWgt=  78.9183361  78.9183361  12.0000000   1.0078250   1.0078250   1.0078250  12.0000000   1.0078250   1.0078250   1.0078250
 NucSpn=           3           3           0           1           1           1           0           1           1           1
 AtZEff=   0.0000000   0.0000000   0.0000000   0.0000000   0.0000000   0.0000000   0.0000000   0.0000000   0.0000000   0.0000000
 NQMom=   31.3000000  31.3000000   0.0000000   0.0000000   0.0000000   0.0000000   0.0000000   0.0000000   0.0000000   0.0000000
 NMagM=    2.1063990   2.1063990   0.0000000   2.7928460   2.7928460   2.7928460   0.0000000   2.7928460   2.7928460   2.7928460
 AtZNuc=  35.0000000  35.0000000   6.0000000   1.0000000   1.0000000   1.0000000   6.0000000   1.0000000   1.0000000   1.0000000
 Leave Link  101 at Fri Nov 29 09:10:25 2019, MaxMem=   939524096 cpu:         0.6
 (Enter /scr/programas/g09/l202.exe)
 Stoichiometry    C38H36Br2P2PtSn
 Framework group  C1[X(C38H36Br2P2PtSn)]
 Deg. of freedom   234
 Full point group                 C1      NOp   1
 Largest Abelian subgroup         C1      NOp   1
 Largest concise Abelian subgroup C1      NOp   1
                         Standard orientation:                         
 ---------------------------------------------------------------------
 Center     Atomic      Atomic             Coordinates (Angstroms)
 Number     Number       Type             X           Y           Z
 ---------------------------------------------------------------------
      1         78           0       -0.071480    0.310884   -0.124328
      2         15           0        2.308757    0.639767   -0.042434
      3          6           0        3.496543   -0.631673    0.605978
      4          6           0        4.194845   -0.481629    1.815830
      5          6           0        3.745725   -1.768139   -0.184774
      6          6           0        5.117472   -1.450187    2.227372
      7          1           0        4.035511    0.395817    2.443135
      8          6           0        4.666991   -2.732663    0.229614
      9          1           0        3.221196   -1.906108   -1.132190
     10          6           0        5.356006   -2.577916    1.438027
     11          1           0        5.654968   -1.314675    3.169734
     12          1           0        4.844576   -3.610058   -0.397013
     13          1           0        6.079913   -3.331491    1.759547
     14          6           0        2.578930    2.084953    1.073735
     15          6           0        3.253820    3.249333    0.680273
     16          6           0        2.035895    2.017273    2.370257
     17          6           0        3.384415    4.322353    1.568118
     18          1           0        3.666012    3.334792   -0.325859
     19          6           0        2.181874    3.082998    3.259917
     20          1           0        1.483488    1.130432    2.687413
     21          6           0        2.854559    4.244073    2.859161
     22          1           0        3.904171    5.225256    1.243235
     23          1           0        1.756564    3.012703    4.264488
     24          1           0        2.959844    5.083484    3.550140
     25          6           0        3.111060    1.028046   -1.659770
     26          6           0        4.504999    1.223964   -1.721025
     27          6           0        2.359407    1.089488   -2.843101
     28          6           0        5.125780    1.506443   -2.940434
     29          1           0        5.116020    1.146997   -0.818521
     30          6           0        2.985292    1.365898   -4.064655
     31          1           0        1.281591    0.936714   -2.805087
     32          6           0        4.364302    1.585324   -4.113630
     33          1           0        6.207344    1.661256   -2.974253
     34          1           0        2.392315    1.409959   -4.980010
     35          1           0        4.851779    1.806203   -5.067323
     36         50           0       -0.007792   -2.170474    0.806676
     37         15           0       -2.457967    0.245172    0.008517
     38          6           0       -3.396364    1.708504   -0.624654
     39          6           0       -3.594522    1.839730   -2.010131
     40          6           0       -3.901091    2.695717    0.233803
     41          6           0       -4.291615    2.932941   -2.524988
     42          1           0       -3.204093    1.085477   -2.695907
     43          6           0       -4.603863    3.789589   -0.285292
     44          1           0       -3.756587    2.618829    1.312510
     45          6           0       -4.800283    3.912317   -1.665093
     46          1           0       -4.434301    3.018078   -3.604234
     47          1           0       -4.997315    4.547704    0.394188
     48          1           0       -5.350052    4.766032   -2.067608
     49          6           0       -3.248910   -1.106569   -0.981004
     50          6           0       -4.613014   -1.443226   -0.897825
     51          6           0       -2.462448   -1.732955   -1.966110
     52          6           0       -5.157673   -2.416268   -1.738161
     53          1           0       -5.281229   -0.944553   -0.194702
     54          6           0       -3.016937   -2.690389   -2.823766
     55          1           0       -1.409467   -1.470455   -2.072186
     56          6           0       -4.362920   -3.044058   -2.704402
     57          1           0       -6.216507   -2.671688   -1.646347
     58          1           0       -2.388137   -3.158756   -3.584439
     59          1           0       -4.796620   -3.797732   -3.366927
     60          6           0       -2.929659    0.181422    1.800366
     61          6           0       -4.146005   -0.319145    2.297882
     62          6           0       -2.018606    0.750410    2.711433
     63          6           0       -4.432178   -0.267573    3.664980
     64          1           0       -4.885656   -0.753467    1.629222
     65          6           0       -2.313306    0.814145    4.076524
     66          1           0       -1.070026    1.150744    2.345457
     67          6           0       -3.520783    0.300069    4.559001
     68          1           0       -5.381126   -0.670908    4.030053
     69          1           0       -1.591615    1.265216    4.763262
     70          1           0       -3.746769    0.341462    5.627445
     71         35           0       -0.171866    2.795556   -1.012827
     72         35           0        0.826352   -3.724891   -1.170109
     73          6           0        1.329324   -2.711535    2.448080
     74          1           0        2.014154   -3.501278    2.108020
     75          1           0        1.915953   -1.853053    2.798382
     76          1           0        0.699202   -3.097533    3.265481
     77          6           0       -1.825778   -3.313750    1.261070
     78          1           0       -2.186627   -3.796103    0.343528
     79          1           0       -1.543676   -4.081155    1.999153
     80          1           0       -2.616260   -2.674609    1.677852
 ---------------------------------------------------------------------
 Rotational constants (GHZ):      0.0633435      0.0491131      0.0415327
 Leave Link  202 at Fri Nov 29 09:10:25 2019, MaxMem=   939524096 cpu:         0.0
 (Enter /scr/programas/g09/l301.exe)
 General basis read from cards:  (5D, 7F)
 Centers:       7      9     11     12     13     18     20     22     23     24
 Centers:      29     31     33     34     35     42     44     46     47     48
 Centers:      53     55     57     58     59     64     66     68     69     70
 Centers:      74     75     76     78     79     80
 S 5 1.00
     Exponent=  2.8295215633D+02 Coefficients=  4.3000000000D-04
     Exponent=  8.7062201949D+01 Coefficients=  5.1000000000D-04
     Exponent=  2.6788369830D+01 Coefficients=  6.1600000000D-03
     Exponent=  8.2425753324D+00 Coefficients=  1.3030000000D-02
     Exponent=  2.5361770254D+00 Coefficients=  9.9490000000D-02
 S 1 1.00
     Exponent=  7.8036216165D-01 Coefficients=  1.0000000000D+00
 S 1 1.00
     Exponent=  2.4011143435D-01 Coefficients=  1.0000000000D+00
 P 1 1.00
     Exponent=  8.8150000000D-01 Coefficients=  1.0000000000D+00
 P 1 1.00
     Exponent=  1.7989200000D-01 Coefficients=  1.0000000000D+00
 ****
 Centers:       3      4      5      6      8     10     14     15     16     17
 Centers:      19     21     25     26     27     28     30     32     38     39
 Centers:      40     41     43     45     49     50     51     52     54     56
 Centers:      60     61     62     63     65     67     73     77
 S 6 1.00
     Exponent=  8.8461235339D+03 Coefficients=  5.3000000000D-04
     Exponent=  2.9487078446D+03 Coefficients=  7.7000000000D-04
     Exponent=  9.8290261488D+02 Coefficients=  4.0500000000D-03
     Exponent=  3.2763420496D+02 Coefficients=  1.4030000000D-02
     Exponent=  1.0921140165D+02 Coefficients=  5.3450000000D-02
     Exponent=  3.6403800551D+01 Coefficients=  1.7027000000D-01
 S 1 1.00
     Exponent=  1.2134600184D+01 Coefficients=  1.0000000000D+00
 S 1 1.00
     Exponent=  4.0448667279D+00 Coefficients=  1.0000000000D+00
 S 1 1.00
     Exponent=  1.3482889093D+00 Coefficients=  1.0000000000D+00
 S 1 1.00
     Exponent=  4.4942963643D-01 Coefficients=  1.0000000000D+00
 S 1 1.00
     Exponent=  1.4980987881D-01 Coefficients=  1.0000000000D+00
 P 4 1.00
     Exponent=  3.7294093393D+01 Coefficients=  3.9600000000D-03
     Exponent=  1.1475105659D+01 Coefficients=  1.8890000000D-02
     Exponent=  3.5308017414D+00 Coefficients=  9.4610000000D-02
     Exponent=  1.0864005358D+00 Coefficients=  3.1889000000D-01
 P 1 1.00
     Exponent=  3.3427708794D-01 Coefficients=  1.0000000000D+00
 P 1 1.00
     Exponent=  1.0285448860D-01 Coefficients=  1.0000000000D+00
 D 1 1.00
     Exponent=  4.7750000000D-01 Coefficients=  1.0000000000D+00
 D 1 1.00
     Exponent=  1.1998000000D-01 Coefficients=  1.0000000000D+00
 ****
 Centers:       2     37
 S 7 1.00
     Exponent=  5.9538004301D+04 Coefficients=  9.5000000000D-04
     Exponent=  2.1650183382D+04 Coefficients=  6.1000000000D-04
     Exponent=  7.8727939572D+03 Coefficients=  3.7500000000D-03
     Exponent=  2.8628341663D+03 Coefficients=  9.6300000000D-03
     Exponent=  1.0410306059D+03 Coefficients=  3.2430000000D-02
     Exponent=  3.7855658397D+02 Coefficients=  9.9500000000D-02
     Exponent=  1.3765693962D+02 Coefficients=  2.6570000000D-01
 S 1 1.00
     Exponent=  5.0057068954D+01 Coefficients=  1.0000000000D+00
 S 1 1.00
     Exponent=  1.8202570529D+01 Coefficients=  1.0000000000D+00
 S 1 1.00
     Exponent=  6.6191165560D+00 Coefficients=  1.0000000000D+00
 S 1 1.00
     Exponent=  2.4069514749D+00 Coefficients=  1.0000000000D+00
 S 1 1.00
     Exponent=  8.7525508178D-01 Coefficients=  1.0000000000D+00
 S 1 1.00
     Exponent=  3.1827457519D-01 Coefficients=  1.0000000000D+00
 S 1 1.00
     Exponent=  1.1573620916D-01 Coefficients=  1.0000000000D+00
 S 1 1.00
     Exponent=  4.2085894240D-02 Coefficients=  1.0000000000D+00
 P 5 1.00
     Exponent=  4.8799672315D+02 Coefficients=  2.1600000000D-03
     Exponent=  1.6266557438D+02 Coefficients=  9.7900000000D-03
     Exponent=  5.4221858128D+01 Coefficients=  5.4850000000D-02
     Exponent=  1.8073952709D+01 Coefficients=  2.1770000000D-01
     Exponent=  6.0246509031D+00 Coefficients=  4.8978000000D-01
 P 1 1.00
     Exponent=  2.0082169677D+00 Coefficients=  1.0000000000D+00
 P 1 1.00
     Exponent=  6.6940565590D-01 Coefficients=  1.0000000000D+00
 P 1 1.00
     Exponent=  2.2313521863D-01 Coefficients=  1.0000000000D+00
 P 1 1.00
     Exponent=  7.4378406211D-02 Coefficients=  1.0000000000D+00
 P 1 1.00
     Exponent=  2.4792802070D-02 Coefficients=  1.0000000000D+00
 D 1 1.00
     Exponent=  3.5395000000D-01 Coefficients=  1.0000000000D+00
 D 1 1.00
     Exponent=  8.9098000000D-02 Coefficients=  1.0000000000D+00
 ****
 Centers:      71     72
 S 7 1.00
     Exponent=  3.4867099512D+05 Coefficients=  2.4100000000D-03
     Exponent=  1.3946839805D+05 Coefficients=  1.2000000000D-04
     Exponent=  5.5787359218D+04 Coefficients=  5.8500000000D-03
     Exponent=  2.2314943687D+04 Coefficients=  8.2100000000D-03
     Exponent=  8.9259774750D+03 Coefficients=  2.4090000000D-02
     Exponent=  3.5703909900D+03 Coefficients=  5.7250000000D-02
     Exponent=  1.4281563960D+03 Coefficients=  1.4467000000D-01
 S 1 1.00
     Exponent=  5.7126255840D+02 Coefficients=  1.0000000000D+00
 S 1 1.00
     Exponent=  2.2850502336D+02 Coefficients=  1.0000000000D+00
 S 1 1.00
     Exponent=  9.1402009344D+01 Coefficients=  1.0000000000D+00
 S 1 1.00
     Exponent=  3.6560803737D+01 Coefficients=  1.0000000000D+00
 S 1 1.00
     Exponent=  1.4624321495D+01 Coefficients=  1.0000000000D+00
 S 1 1.00
     Exponent=  5.8497285980D+00 Coefficients=  1.0000000000D+00
 S 1 1.00
     Exponent=  2.3398914392D+00 Coefficients=  1.0000000000D+00
 S 1 1.00
     Exponent=  9.3595657568D-01 Coefficients=  1.0000000000D+00
 S 1 1.00
     Exponent=  3.7438263027D-01 Coefficients=  1.0000000000D+00
 S 1 1.00
     Exponent=  1.4975305211D-01 Coefficients=  1.0000000000D+00
 S 1 1.00
     Exponent=  5.9901220843D-02 Coefficients=  1.0000000000D+00
 P 5 1.00
     Exponent=  4.2715043612D+03 Coefficients=  2.0900000000D-03
     Exponent=  1.5532743132D+03 Coefficients=  5.5700000000D-03
     Exponent=  5.6482702297D+02 Coefficients=  3.0250000000D-02
     Exponent=  2.0539164472D+02 Coefficients=  1.2196000000D-01
     Exponent=  7.4687870806D+01 Coefficients=  3.7861000000D-01
 P 1 1.00
     Exponent=  2.7159225748D+01 Coefficients=  1.0000000000D+00
 P 1 1.00
     Exponent=  9.8760820901D+00 Coefficients=  1.0000000000D+00
 P 1 1.00
     Exponent=  3.5913025782D+00 Coefficients=  1.0000000000D+00
 P 1 1.00
     Exponent=  1.3059282103D+00 Coefficients=  1.0000000000D+00
 P 1 1.00
     Exponent=  4.7488298555D-01 Coefficients=  1.0000000000D+00
 P 1 1.00
     Exponent=  1.7268472202D-01 Coefficients=  1.0000000000D+00
 P 1 1.00
     Exponent=  6.2794444370D-02 Coefficients=  1.0000000000D+00
 P 1 1.00
     Exponent=  2.2834343407D-02 Coefficients=  1.0000000000D+00
 D 4 1.00
     Exponent=  1.5776624282D+02 Coefficients=  7.9800000000D-03
     Exponent=  5.2588747607D+01 Coefficients=  4.9870000000D-02
     Exponent=  1.7529582536D+01 Coefficients=  2.2405000000D-01
     Exponent=  5.8431941786D+00 Coefficients=  4.4250000000D-01
 D 1 1.00
     Exponent=  1.9477313929D+00 Coefficients=  1.0000000000D+00
 D 1 1.00
     Exponent=  6.4924379762D-01 Coefficients=  1.0000000000D+00
 F 1 1.00
     Exponent=  1.6480000000D+00 Coefficients=  1.0000000000D+00
 F 1 1.00
     Exponent=  4.5490000000D-01 Coefficients=  1.0000000000D+00
 ****
 Centers:      36
 S 8 1.00
     Exponent=  7.5448214551D+05 Coefficients=  4.4300000000D-03
     Exponent=  3.3532539800D+05 Coefficients=  1.9800000000D-03
     Exponent=  1.4903351022D+05 Coefficients=  9.0500000000D-03
     Exponent=  6.6237115655D+04 Coefficients=  4.8700000000D-03
     Exponent=  2.9438718069D+04 Coefficients=  2.0770000000D-02
     Exponent=  1.3083874697D+04 Coefficients=  3.2900000000D-02
     Exponent=  5.8150554210D+03 Coefficients=  7.7010000000D-02
     Exponent=  2.5844690760D+03 Coefficients=  1.5160000000D-01
 S 1 1.00
     Exponent=  1.1486529227D+03 Coefficients=  1.0000000000D+00
 S 1 1.00
     Exponent=  5.1051241008D+02 Coefficients=  1.0000000000D+00
 S 1 1.00
     Exponent=  2.2689440448D+02 Coefficients=  1.0000000000D+00
 S 1 1.00
     Exponent=  1.0084195755D+02 Coefficients=  1.0000000000D+00
 S 1 1.00
     Exponent=  4.4818647798D+01 Coefficients=  1.0000000000D+00
 S 1 1.00
     Exponent=  1.9919399021D+01 Coefficients=  1.0000000000D+00
 S 1 1.00
     Exponent=  8.8530662317D+00 Coefficients=  1.0000000000D+00
 S 1 1.00
     Exponent=  3.9346961030D+00 Coefficients=  1.0000000000D+00
 S 1 1.00
     Exponent=  1.7487538235D+00 Coefficients=  1.0000000000D+00
 S 1 1.00
     Exponent=  7.7722392158D-01 Coefficients=  1.0000000000D+00
 S 1 1.00
     Exponent=  3.4543285403D-01 Coefficients=  1.0000000000D+00
 S 1 1.00
     Exponent=  1.5352571290D-01 Coefficients=  1.0000000000D+00
 S 1 1.00
     Exponent=  6.8233650180D-02 Coefficients=  1.0000000000D+00
 S 1 1.00
     Exponent=  1.3478251887D-02 Coefficients=  1.0000000000D+00
 P 5 1.00
     Exponent=  1.0090658304D+04 Coefficients=  2.7500000000D-03
     Exponent=  4.0362633217D+03 Coefficients=  4.1800000000D-03
     Exponent=  1.6145053287D+03 Coefficients=  2.0890000000D-02
     Exponent=  6.4580213147D+02 Coefficients=  7.1370000000D-02
     Exponent=  2.5832085259D+02 Coefficients=  2.2613000000D-01
 P 1 1.00
     Exponent=  1.0332834104D+02 Coefficients=  1.0000000000D+00
 P 1 1.00
     Exponent=  4.1331336414D+01 Coefficients=  1.0000000000D+00
 P 1 1.00
     Exponent=  1.6532534566D+01 Coefficients=  1.0000000000D+00
 P 1 1.00
     Exponent=  6.6130138263D+00 Coefficients=  1.0000000000D+00
 P 1 1.00
     Exponent=  2.6452055305D+00 Coefficients=  1.0000000000D+00
 P 1 1.00
     Exponent=  1.0580822122D+00 Coefficients=  1.0000000000D+00
 P 1 1.00
     Exponent=  4.2323288488D-01 Coefficients=  1.0000000000D+00
 P 1 1.00
     Exponent=  1.6929315395D-01 Coefficients=  1.0000000000D+00
 P 1 1.00
     Exponent=  6.7717261581D-02 Coefficients=  1.0000000000D+00
 P 1 1.00
     Exponent=  2.7086904632D-02 Coefficients=  1.0000000000D+00
 P 1 1.00
     Exponent=  1.0834761853D-02 Coefficients=  1.0000000000D+00
 D 4 1.00
     Exponent=  5.5430250651D+02 Coefficients=  4.3700000000D-03
     Exponent=  2.0156454782D+02 Coefficients=  2.5110000000D-02
     Exponent=  7.3296199207D+01 Coefficients=  1.3316000000D-01
     Exponent=  2.6653163348D+01 Coefficients=  3.8900000000D-01
 D 1 1.00
     Exponent=  9.6920593993D+00 Coefficients=  1.0000000000D+00
 D 1 1.00
     Exponent=  3.5243852361D+00 Coefficients=  1.0000000000D+00
 D 1 1.00
     Exponent=  1.2815946313D+00 Coefficients=  1.0000000000D+00
 D 1 1.00
     Exponent=  4.6603441139D-01 Coefficients=  1.0000000000D+00
 D 1 1.00
     Exponent=  1.6946705869D-01 Coefficients=  1.0000000000D+00
 F 1 1.00
     Exponent=  1.3140000000D+00 Coefficients=  1.0000000000D+00
 F 1 1.00
     Exponent=  1.9993000000D-01 Coefficients=  1.0000000000D+00
 ****
 Centers:       1
 S 9 1.00
     Exponent=  2.1644816090D+06 Coefficients=  1.2320000000D-02
     Exponent=  1.0822408045D+06 Coefficients=  1.2970000000D-02
     Exponent=  5.4112040224D+05 Coefficients=  2.6370000000D-02
     Exponent=  2.7056020112D+05 Coefficients=  9.0400000000D-03
     Exponent=  1.3528010056D+05 Coefficients=  3.4980000000D-02
     Exponent=  6.7640050280D+04 Coefficients=  1.2220000000D-02
     Exponent=  3.3820025140D+04 Coefficients=  6.0520000000D-02
     Exponent=  1.6910012570D+04 Coefficients=  6.4930000000D-02
     Exponent=  8.4550062850D+03 Coefficients=  1.3819000000D-01
 S 1 1.00
     Exponent=  4.2275031425D+03 Coefficients=  1.0000000000D+00
 S 1 1.00
     Exponent=  2.1137515713D+03 Coefficients=  1.0000000000D+00
 S 1 1.00
     Exponent=  1.0568757856D+03 Coefficients=  1.0000000000D+00
 S 1 1.00
     Exponent=  5.2843789281D+02 Coefficients=  1.0000000000D+00
 S 1 1.00
     Exponent=  2.6421894641D+02 Coefficients=  1.0000000000D+00
 S 1 1.00
     Exponent=  1.3210947320D+02 Coefficients=  1.0000000000D+00
 S 1 1.00
     Exponent=  6.6054736602D+01 Coefficients=  1.0000000000D+00
 S 1 1.00
     Exponent=  3.3027368301D+01 Coefficients=  1.0000000000D+00
 S 1 1.00
     Exponent=  1.6513684150D+01 Coefficients=  1.0000000000D+00
 S 1 1.00
     Exponent=  8.2568420752D+00 Coefficients=  1.0000000000D+00
 S 1 1.00
     Exponent=  4.1284210376D+00 Coefficients=  1.0000000000D+00
 S 1 1.00
     Exponent=  2.0642105188D+00 Coefficients=  1.0000000000D+00
 S 1 1.00
     Exponent=  1.0321052594D+00 Coefficients=  1.0000000000D+00
 S 1 1.00
     Exponent=  5.1605262970D-01 Coefficients=  1.0000000000D+00
 S 1 1.00
     Exponent=  2.5802631485D-01 Coefficients=  1.0000000000D+00
 S 1 1.00
     Exponent=  1.2901315743D-01 Coefficients=  1.0000000000D+00
 S 1 1.00
     Exponent=  6.4506578713D-02 Coefficients=  1.0000000000D+00
 P 7 1.00
     Exponent=  3.2357915258D+04 Coefficients=  5.0200000000D-03
     Exponent=  1.4381295670D+04 Coefficients=  2.0200000000D-03
     Exponent=  6.3916869645D+03 Coefficients=  1.8070000000D-02
     Exponent=  2.8407497620D+03 Coefficients=  3.6620000000D-02
     Exponent=  1.2625554498D+03 Coefficients=  1.1172000000D-01
     Exponent=  5.6113575545D+02 Coefficients=  2.5586000000D-01
     Exponent=  2.4939366909D+02 Coefficients=  4.2608000000D-01
 P 1 1.00
     Exponent=  1.1084163071D+02 Coefficients=  1.0000000000D+00
 P 1 1.00
     Exponent=  4.9262946981D+01 Coefficients=  1.0000000000D+00
 P 1 1.00
     Exponent=  2.1894643103D+01 Coefficients=  1.0000000000D+00
 P 1 1.00
     Exponent=  9.7309524900D+00 Coefficients=  1.0000000000D+00
 P 1 1.00
     Exponent=  4.3248677733D+00 Coefficients=  1.0000000000D+00
 P 1 1.00
     Exponent=  1.9221634548D+00 Coefficients=  1.0000000000D+00
 P 1 1.00
     Exponent=  8.5429486881D-01 Coefficients=  1.0000000000D+00
 P 1 1.00
     Exponent=  3.7968660836D-01 Coefficients=  1.0000000000D+00
 P 1 1.00
     Exponent=  1.6874960372D-01 Coefficients=  1.0000000000D+00
 P 1 1.00
     Exponent=  7.4999823874D-02 Coefficients=  1.0000000000D+00
 P 1 1.00
     Exponent=  3.3333255055D-02 Coefficients=  1.0000000000D+00
 D 5 1.00
     Exponent=  1.9119003508D+03 Coefficients=  4.3300000000D-03
     Exponent=  7.6476014031D+02 Coefficients=  1.7780000000D-02
     Exponent=  3.0590405613D+02 Coefficients=  8.9710000000D-02
     Exponent=  1.2236162245D+02 Coefficients=  3.1123000000D-01
     Exponent=  4.8944648980D+01 Coefficients=  5.3206000000D-01
 D 1 1.00
     Exponent=  1.9577859592D+01 Coefficients=  1.0000000000D+00
 D 1 1.00
     Exponent=  7.8311438368D+00 Coefficients=  1.0000000000D+00
 D 1 1.00
     Exponent=  3.1324575347D+00 Coefficients=  1.0000000000D+00
 D 1 1.00
     Exponent=  1.2529830139D+00 Coefficients=  1.0000000000D+00
 D 1 1.00
     Exponent=  5.0119320556D-01 Coefficients=  1.0000000000D+00
 D 1 1.00
     Exponent=  2.0047728222D-01 Coefficients=  1.0000000000D+00
 D 1 1.00
     Exponent=  8.0190912889D-02 Coefficients=  1.0000000000D+00
 D 1 1.00
     Exponent=  3.2076365156D-02 Coefficients=  1.0000000000D+00
 F 4 1.00
     Exponent=  8.2289680979D+01 Coefficients=  6.1870000000D-02
     Exponent=  2.9923520356D+01 Coefficients=  2.4823000000D-01
     Exponent=  1.0881280130D+01 Coefficients=  4.9956000000D-01
     Exponent=  3.9568291380D+00 Coefficients=  4.0380000000D-01
 F 1 1.00
     Exponent=  1.4388469593D+00 Coefficients=  1.0000000000D+00
 F 1 1.00
     Exponent=  5.2321707610D-01 Coefficients=  1.0000000000D+00
 G 1 1.00
     Exponent=  2.6700000000D+00 Coefficients=  1.0000000000D+00
 G 1 1.00
     Exponent=  9.0960000000D-01 Coefficients=  1.0000000000D+00
 ****
 Ernie: Thresh=  0.10000D-02 Tol=  0.10000D-05 Strict=F.
 There are  1857 symmetry adapted cartesian basis functions of A   symmetry.
 There are  1717 symmetry adapted basis functions of A   symmetry.
  1717 basis functions,  2758 primitive gaussians,  1857 cartesian basis functions
   246 alpha electrons      246 beta electrons
       nuclear repulsion energy     13327.4379754902 Hartrees.
 IExCor= 1009 DFT=T Ex=PBE Corr=PBE ExCW=0 ScaHFX=  0.000000
 ScaDFX=  1.000000  1.000000  1.000000  1.000000 ScalE2=  1.000000  1.000000
 IRadAn=      0 IRanWt=     -1 IRanGd=            0 ICorTp=0 IEmpDi=  4
 NAtoms=   80 NActive=   80 NUniq=   80 SFac= 1.00D+00 NAtFMM=   60 NAOKFM=T Big=T
 Integral buffers will be    131072 words long.
 Raffenetti 2 integral format.
 Two-electron integral symmetry is turned on.
 ------------------------------------------------------------------------------
 Polarizable Continuum Model (PCM)
 =================================
 Model                : PCM (using non-symmetric T matrix).
 Atomic radii         : UFF (Universal Force Field).
 Polarization charges : Total charges.
 Charge compensation  : None.
 Solution method      : On-the-fly selection.
 Cavity type          : Scaled VdW (van der Waals Surface) (Alpha=1.100).
 Cavity algorithm     : GePol (No added spheres)
                        Default sphere list used, NSphG=   80.
                        Lebedev-Laikov grids with approx.  5.0 points / Ang**2.
                        Smoothing algorithm: Karplus/York (Gamma=1.0000).
                        Polarization charges: spherical gaussians, with
                                              point-specific exponents (IZeta= 3).
                        Self-potential: point-specific (ISelfS= 7).
                        Self-field    : sphere-specific E.n sum rule (ISelfD= 2).
 Solvent              : Dichloromethane, Eps=   8.930000 Eps(inf)=   2.028346
 ------------------------------------------------------------------------------
 GePol: Number of generator spheres                  =      80
 GePol: Total number of spheres                      =      80
 GePol: Number of exposed spheres                    =      80 (100.00%)
 GePol: Number of points                             =    5974
 GePol: Average weight of points                     =       0.13
 GePol: Minimum weight of points                     =   0.95D-11
 GePol: Maximum weight of points                     =    0.21838
 GePol: Number of points with low weight             =     444
 GePol: Fraction of low-weight points (<1% of avg)   =       7.43%
 GePol: Cavity surface area                          =    755.810 Ang**2
 GePol: Cavity volume                                =    934.915 Ang**3
 Leave Link  301 at Fri Nov 29 09:10:26 2019, MaxMem=   939524096 cpu:         1.0
 (Enter /scr/programas/g09/l302.exe)
 NPDir=0 NMtPBC=     1 NCelOv=     1 NCel=       1 NClECP=     1 NCelD=      1
         NCelK=      1 NCelE2=     1 NClLst=     1 CellRange=     0.0.
 One-electron integrals computed using PRISM.
 NBasis=  1717 RedAO= T EigKep=  1.41D-06  NBF=  1717
 NBsUse=  1717 1.00D-06 EigRej= -1.00D+00 NBFU=  1717
 Precomputing XC quadrature grid using
 IXCGrd= 4 IRadAn=           0 IRanWt=          -1 IRanGd=           0 AccXCQ= 0.00D+00.
 Defaulting to unpruned grid for atomic number  78.
 Defaulting to unpruned grid for atomic number  50.
 Generated NRdTot=       0 NPtTot=           0 NUsed=           0 NTot=          32
 NSgBfM=  1599  1610  1611  1615  1617 MxSgAt=    80 MxSgA2=    80.
 Leave Link  302 at Fri Nov 29 09:10:46 2019, MaxMem=   939524096 cpu:        76.7
 (Enter /scr/programas/g09/l308.exe)
 Leave Link  308 at Fri Nov 29 09:10:48 2019, MaxMem=   939524096 cpu:         5.5
 (Enter /scr/programas/g09/l303.exe)
 DipDrv:  MaxL=1.
 Leave Link  303 at Fri Nov 29 09:10:49 2019, MaxMem=   939524096 cpu:         3.2
 (Enter /scr/programas/g09/l401.exe)
 ExpMin= 1.08D-02 ExpMax= 2.16D+06 ExpMxC= 2.16D+06 IAcc=4 IRadAn=    199590 AccDes= 0.00D+00
 Harris functional with IExCor= 1009 and IRadAn=  199590 diagonalized for initial guess.
 HarFok:  IExCor= 1009 AccDes= 0.00D+00 IRadAn=    199590 IDoV= 1 UseB2=F ITyADJ=14
 ICtDFT=  3500011 ScaDFX=  1.000000  1.000000  1.000000  1.000000
 FoFCou: FMM=F IPFlag=           0 FMFlag=      100000 FMFlg1=        2001
         NFxFlg=           0 DoJE=T BraDBF=F KetDBF=T FulRan=T
         wScrn=  0.000000 ICntrl=     500 IOpCl=  0 I1Cent=   200000004 NGrid=           0
         NMat0=    1 NMatS0=      1 NMatT0=    0 NMatD0=    1 NMtDS0=    0 NMtDT0=    0
 Petite list used in FoFCou.
 Harris En= -30392.9675831564    
 JPrj=0 DoOrth=F DoCkMO=F.
 Leave Link  401 at Fri Nov 29 09:21:31 2019, MaxMem=   939524096 cpu:      2394.9
 (Enter /scr/programas/g09/l502.exe)
 Closed shell SCF:
 Using DIIS extrapolation, IDIIS=  1040.
 Integral symmetry usage will be decided dynamically.
 IVT=    10624297 IEndB=    10624297 NGot=   939524096 MDV=   932601106
 LenX=   932601106 LenY=   929150800
 Requested convergence on RMS density matrix=1.00D-03 within 500 cycles.
 Requested convergence on MAX density matrix=1.00D-01.
 Requested convergence on             energy=1.00D-01.
 No special actions if energy rises.
 Fock matrices will be formed incrementally for  20 cycles.

 Cycle   1  Pass 1  IDiag  1:
 FoFJK:  IHMeth= 1 ICntrl=     500 DoSepK=F KAlg= 0 I1Cent=   0 FoldK=F
 IRaf= 640000000 NMat=   1 IRICut=       1 DoRegI=T DoRafI=F ISym2E= 0.
 FoFCou: FMM=T IPFlag=           0 FMFlag=      100000 FMFlg1=        2001
         NFxFlg=           0 DoJE=T BraDBF=F KetDBF=F FulRan=T
         wScrn=  0.000000 ICntrl=     500 IOpCl=  0 I1Cent=           0 NGrid=           0
         NMat0=    1 NMatS0=      1 NMatT0=    0 NMatD0=    1 NMtDS0=    0 NMtDT0=    0
 Symmetry not used in FoFCou.
 FMM levels:  10  Number of levels for PrismC:   9
 Defaulting to unpruned grid for atomic number  78.
 Defaulting to unpruned grid for atomic number  78.
 Defaulting to unpruned grid for atomic number  78.
 Defaulting to unpruned grid for atomic number  78.
 Inv3:  Mode=1 IEnd=   107066028.
 Iteration    1 A*A^-1 deviation from unit magnitude is 9.88D-15 for   2307.
 Iteration    1 A*A^-1 deviation from orthogonality  is 1.07D-14 for   4884   4242.
 Iteration    1 A^-1*A deviation from unit magnitude is 1.13D-14 for   3748.
 Iteration    1 A^-1*A deviation from orthogonality  is 2.57D-10 for   4967   4932.
 Iteration    2 A*A^-1 deviation from unit magnitude is 1.04D-14 for   1839.
 Iteration    2 A*A^-1 deviation from orthogonality  is 1.74D-14 for   4081   2051.
 Iteration    2 A^-1*A deviation from unit magnitude is 1.78D-15 for    224.
 Iteration    2 A^-1*A deviation from orthogonality  is 8.39D-16 for   4166   2236.
 E= -30372.3417648090    
 DIIS: error= 1.71D-01 at cycle   1 NSaved=   1.
 NSaved= 1 IEnMin= 1 EnMin= -30372.3417648090     IErMin= 1 ErrMin= 1.71D-01
 ErrMax= 1.71D-01  0.00D+00 EMaxC= 1.00D-01 BMatC= 3.39D+02 BMatP= 3.39D+02
 IDIUse=3 WtCom= 0.00D+00 WtEn= 1.00D+00
 Coeff-Com:  0.100D+01
 Coeff-En:   0.100D+01
 Coeff:      0.100D+01
 Gap=     0.771 Goal=   None    Shift=    0.000
 GapD=    0.771 DampG=2.000 DampE=0.125 DampFc=0.2500 IDamp=-1.
 Damping current iteration by 2.50D-01
 RMSDP=1.79D-02 MaxDP=5.74D+00              OVMax= 7.30D-01

 Cycle   2  Pass 1  IDiag  1:
 RMSU=  4.25D-03    CP:  1.09D+00
 E= -30374.1957727630     Delta-E=       -1.854007954033 Rises=F Damp=T
 DIIS: error= 1.18D-01 at cycle   2 NSaved=   2.
 NSaved= 2 IEnMin= 2 EnMin= -30374.1957727630     IErMin= 2 ErrMin= 1.18D-01
 ErrMax= 1.18D-01  0.00D+00 EMaxC= 1.00D-01 BMatC= 1.63D+02 BMatP= 3.39D+02
 IDIUse=3 WtCom= 0.00D+00 WtEn= 1.00D+00
 Coeff-Com: -0.197D+01 0.297D+01
 Coeff-En:   0.310D-01 0.969D+00
 Coeff:      0.310D-01 0.969D+00
 Gap=    -0.048 Goal=   None    Shift=    0.000
 RMSDP=8.57D-03 MaxDP=1.73D+00 DE=-1.85D+00 OVMax= 8.79D-01

 Cycle   3  Pass 1  IDiag  1:
 RMSU=  5.53D-03    CP:  7.23D-01  1.32D-01
 E= -30376.6244376343     Delta-E=       -2.428664871259 Rises=F Damp=F
 DIIS: error= 4.39D-02 at cycle   3 NSaved=   3.
 NSaved= 3 IEnMin= 3 EnMin= -30376.6244376343     IErMin= 3 ErrMin= 4.39D-02
 ErrMax= 4.39D-02  0.00D+00 EMaxC= 1.00D-01 BMatC= 1.05D+01 BMatP= 1.63D+02
 IDIUse=3 WtCom= 5.61D-01 WtEn= 4.39D-01
 EnCoef did   100 forward-backward iterations
 Coeff-Com:  0.879D+00-0.106D+01 0.118D+01
 Coeff-En:   0.196D+00 0.220D-02 0.802D+00
 Coeff:      0.579D+00-0.594D+00 0.101D+01
 Gap=     0.156 Goal=   None    Shift=    0.000
 RMSDP=1.57D-02 MaxDP=4.66D+00 DE=-2.43D+00 OVMax= 7.64D-01

 Cycle   4  Pass 1  IDiag  1:
 RMSU=  9.67D-03    CP:  1.29D+00  1.83D+00 -5.78D-02
 E= -30365.7203224394     Delta-E=       10.904115194913 Rises=F Damp=F
 DIIS: error= 2.87D-02 at cycle   4 NSaved=   4.
 NSaved= 4 IEnMin= 3 EnMin= -30376.6244376343     IErMin= 4 ErrMin= 2.87D-02
 ErrMax= 2.87D-02  0.00D+00 EMaxC= 1.00D-01 BMatC= 1.08D+01 BMatP= 1.05D+01
 IDIUse=3 WtCom= 7.13D-01 WtEn= 2.87D-01
 EnCoef did     5 forward-backward iterations
 Coeff-Com:  0.700D+00-0.877D+00 0.849D+00 0.328D+00
 Coeff-En:   0.173D+00 0.000D+00 0.770D+00 0.570D-01
 Coeff:      0.549D+00-0.625D+00 0.826D+00 0.250D+00
 Gap=     0.164 Goal=   None    Shift=    0.000
 RMSDP=1.36D-02 MaxDP=4.40D+00 DE= 1.09D+01 OVMax= 8.71D-01

 Cycle   5  Pass 1  IDiag  1:
 RMSU=  2.24D-03    CP:  8.18D-01  2.83D-01  5.45D-01  7.43D-02
 E= -30377.6639441652     Delta-E=      -11.943621725812 Rises=F Damp=F
 DIIS: error= 1.24D-02 at cycle   5 NSaved=   5.
 NSaved= 5 IEnMin= 5 EnMin= -30377.6639441652     IErMin= 5 ErrMin= 1.24D-02
 ErrMax= 1.24D-02  0.00D+00 EMaxC= 1.00D-01 BMatC= 7.99D-01 BMatP= 1.05D+01
 IDIUse=3 WtCom= 8.76D-01 WtEn= 1.24D-01
 Coeff-Com:  0.879D-01-0.948D-01 0.281D+00 0.112D+00 0.614D+00
 Coeff-En:   0.000D+00 0.000D+00 0.191D+00 0.000D+00 0.809D+00
 Coeff:      0.770D-01-0.830D-01 0.270D+00 0.982D-01 0.638D+00
 Gap=     0.161 Goal=   None    Shift=    0.000
 RMSDP=3.45D-03 MaxDP=4.12D-01 DE=-1.19D+01 OVMax= 2.66D-01

 Cycle   6  Pass 1  IDiag  1:
 RMSU=  1.98D-03    CP:  7.82D-01  1.57D-01  7.45D-01  8.54D-02 -1.13D-01
 E= -30377.4338781697     Delta-E=        0.230065995522 Rises=F Damp=F
 DIIS: error= 1.09D-02 at cycle   6 NSaved=   6.
 NSaved= 6 IEnMin= 5 EnMin= -30377.6639441652     IErMin= 6 ErrMin= 1.09D-02
 ErrMax= 1.09D-02  0.00D+00 EMaxC= 1.00D-01 BMatC= 7.35D-01 BMatP= 7.99D-01
 IDIUse=3 WtCom= 8.91D-01 WtEn= 1.09D-01
 Coeff-Com: -0.614D-01 0.888D-01 0.580D-01 0.131D-01 0.521D+00 0.381D+00
 Coeff-En:   0.000D+00 0.000D+00 0.000D+00 0.000D+00 0.564D+00 0.436D+00
 Coeff:     -0.547D-01 0.791D-01 0.517D-01 0.117D-01 0.526D+00 0.387D+00
 Gap=     0.117 Goal=   None    Shift=    0.000
 RMSDP=1.84D-03 MaxDP=1.82D-01 DE= 2.30D-01 OVMax= 1.98D-01

 Cycle   7  Pass 1  IDiag  1:
 RMSU=  8.94D-04    CP:  7.70D-01  1.04D-01  7.68D-01  8.20D-02  3.41D-01
                    CP:  3.87D-01
 E= -30378.1615283605     Delta-E=       -0.727650190791 Rises=F Damp=F
 DIIS: error= 2.00D-03 at cycle   7 NSaved=   7.
 NSaved= 7 IEnMin= 7 EnMin= -30378.1615283605     IErMin= 7 ErrMin= 2.00D-03
 ErrMax= 2.00D-03  0.00D+00 EMaxC= 1.00D-01 BMatC= 4.64D-02 BMatP= 7.35D-01
 IDIUse=3 WtCom= 9.80D-01 WtEn= 2.00D-02
 Coeff-Com: -0.410D-01 0.568D-01 0.112D-01-0.154D-02 0.291D+00 0.238D+00
 Coeff-Com:  0.445D+00
 Coeff-En:   0.000D+00 0.000D+00 0.000D+00 0.000D+00 0.000D+00 0.000D+00
 Coeff-En:   0.100D+01
 Coeff:     -0.402D-01 0.557D-01 0.110D-01-0.151D-02 0.285D+00 0.233D+00
 Coeff:      0.456D+00
 Gap=     0.104 Goal=   None    Shift=    0.000
 RMSDP=6.50D-04 MaxDP=6.54D-02 DE=-7.28D-01 OVMax= 6.21D-02

 Cycle   8  Pass 1  IDiag  1:
 RMSU=  3.89D-04    CP:  7.73D-01  1.38D-01  7.31D-01  8.40D-02  3.90D-01
                    CP:  4.83D-01  5.53D-01
 E= -30378.1929799337     Delta-E=       -0.031451573188 Rises=F Damp=F
 DIIS: error= 1.20D-03 at cycle   8 NSaved=   8.
 NSaved= 8 IEnMin= 8 EnMin= -30378.1929799337     IErMin= 8 ErrMin= 1.20D-03
 ErrMax= 1.20D-03  0.00D+00 EMaxC= 1.00D-01 BMatC= 1.32D-02 BMatP= 4.64D-02
 IDIUse=3 WtCom= 9.88D-01 WtEn= 1.20D-02
 Coeff-Com: -0.198D-01 0.269D-01-0.150D-02-0.264D-02 0.112D+00 0.833D-01
 Coeff-Com:  0.336D+00 0.466D+00
 Coeff-En:   0.000D+00 0.000D+00 0.000D+00 0.000D+00 0.000D+00 0.000D+00
 Coeff-En:   0.291D+00 0.709D+00
 Coeff:     -0.195D-01 0.266D-01-0.148D-02-0.260D-02 0.111D+00 0.823D-01
 Coeff:      0.335D+00 0.469D+00
 Gap=     0.104 Goal=   None    Shift=    0.000
 RMSDP=3.02D-04 MaxDP=2.98D-02 DE=-3.15D-02 OVMax= 3.02D-02

 Error on total polarization charges =  0.02536
 SCF Done:  E(RPBE-PBE) =  -30378.1929799     A.U. after    8 cycles
            NFock=  8  Conv=0.30D-03     -V/T= 2.0142
 KE= 2.995165737140D+04 PE=-9.860402648165D+04 EE= 2.494673815482D+04
 Leave Link  502 at Fri Nov 29 11:51:03 2019, MaxMem=   939524096 cpu:     35254.3
 (Enter /scr/programas/g09/l801.exe)
 Range of M.O.s used for correlation:     1  1717
 NBasis=  1717 NAE=   246 NBE=   246 NFC=     0 NFV=     0
 NROrb=   1717 NOA=   246 NOB=   246 NVA=  1471 NVB=  1471

 **** Warning!!: The largest alpha MO coefficient is  0.78097564D+02

 Leave Link  801 at Fri Nov 29 11:51:04 2019, MaxMem=   939524096 cpu:         0.3
 (Enter /scr/programas/g09/l1002.exe)
 Minotr:  Closed shell wavefunction.
 NEqPCM:  Using equilibrium solvation (IEInf=0, Eps=   8.9300, EpsInf=   2.0283)
          Direct CPHF calculation.
          Differentiating once with respect to magnetic field using GIAOs.
          Electric field/nuclear overlap derivatives assumed to be zero.
          Requested convergence is 1.0D-08 RMS, and 1.0D-07 maximum.
          Secondary convergence is 1.0D-12 RMS, and 1.0D-12 maximum.
          NewPWx=T KeepS1=F KeepF1=F KeepIn=T MapXYZ=F SortEE=F KeepMc=T.
          MDV=     939521735 using IRadAn=       2.
 Defaulting to unpruned grid for atomic number  78.
 Defaulting to unpruned grid for atomic number  50.
 Generate precomputed XC quadrature information.
          Solving linear equations simultaneously, MaxMat=      72.
 FoFJK:  IHMeth= 1 ICntrl=    6127 DoSepK=F KAlg= 0 I1Cent=   0 FoldK=F
 IRaf=         1 NMat=   1 IRICut=       1 DoRegI=T DoRafI=F ISym2E= 0.
 Defaulting to unpruned grid for atomic number  78.
 Defaulting to unpruned grid for atomic number  78.
 Defaulting to unpruned grid for atomic number  78.
 Defaulting to unpruned grid for atomic number  78.
          There are     3 degrees of freedom in the 1st order CPHF.  IDoFFX=0 NUNeed=     3.
      3 vectors produced by pass  0 Test12= 1.21D-11 3.33D-08 XBig12= 7.78D+03 4.60D+00.
 AX will form     3 AO Fock derivatives at one time.
 InvSVY:  IOpt=1 It=  1 EMax= 0.00D+00
 Solved reduced A of dimension     3 with     3 vectors.
 Calculating GIAO nuclear magnetic shielding tensors.
 SCF GIAO Magnetic shielding tensor (ppm):
      1  Pt   Isotropic =  3443.4791   Anisotropy =  1292.8757
   XX=  4290.4610   YX=   -52.8573   ZX=  -179.7103
   XY=   -17.8695   YY=  3401.3468   ZY=  -403.1306
   XZ=  -135.8295   YZ=  -365.7801   ZZ=  2638.6294
   Eigenvalues:  2464.5787  3560.4623  4305.3962
      2  P    Isotropic =   282.6250   Anisotropy =    67.4965
   XX=   303.7884   YX=     5.8728   ZX=    -5.0266
   XY=     6.0762   YY=   276.9049   ZY=   -24.5565
   XZ=   -35.7453   YZ=   -57.2382   ZZ=   267.1816
   Eigenvalues:   229.0644   291.1879   327.6226
      3  C    Isotropic =   153.3074   Anisotropy =   231.3075
   XX=   221.1787   YX=    42.7684   ZX=  -102.2416
   XY=    35.7567   YY=   132.2571   ZY=  -100.5870
   XZ=   -61.5919   YZ=  -103.5263   ZZ=   106.4864
   Eigenvalues:     9.4667   142.9431   307.5124
      4  C    Isotropic =   129.6784   Anisotropy =   293.6226
   XX=   159.7159   YX=    61.0809   ZX=  -109.1538
   XY=   131.5219   YY=   161.0562   ZY=   -70.7040
   XZ=   -95.5951   YZ=  -100.2862   ZZ=    68.2631
   Eigenvalues:    -2.1833    65.7918   325.4268
      5  C    Isotropic =   127.4979   Anisotropy =   291.9186
   XX=   171.1423   YX=    97.7901   ZX=   -85.6108
   XY=    91.0652   YY=    98.5536   ZY=  -155.2194
   XZ=   -70.2003   YZ=   -80.8957   ZZ=   112.7977
   Eigenvalues:   -14.4996    74.8830   322.1102
      6  C    Isotropic =     9.1740   Anisotropy =    38.4382
   XX=    22.5646   YX=     1.7995   ZX=   -63.5714
   XY=    -2.6836   YY=    24.3639   ZY=     4.6482
   XZ=    36.6052   YZ=    34.8738   ZZ=   -19.4064
   Eigenvalues:   -29.9717    22.6942    34.7995
      7  H    Isotropic =    23.2334   Anisotropy =    13.5396
   XX=    24.6555   YX=    -7.6754   ZX=     2.8877
   XY=    -8.6625   YY=    21.2878   ZY=     7.8802
   XZ=     6.7464   YZ=    -4.4515   ZZ=    23.7570
   Eigenvalues:    12.8203    24.6201    32.2599
      8  C    Isotropic =    39.9273   Anisotropy =    94.2393
   XX=    65.0271   YX=    54.2644   ZX=    -1.5091
   XY=   -27.2527   YY=   -21.0040   ZY=    -5.3123
   XZ=   -55.3234   YZ=   -25.9134   ZZ=    75.7588
   Eigenvalues:   -24.4488    41.4772   102.7535
      9  H    Isotropic =    21.5273   Anisotropy =    15.1926
   XX=    24.0504   YX=    -2.2734   ZX=    -1.0618
   XY=    -6.8298   YY=    27.4310   ZY=    -0.1484
   XZ=     3.2300   YZ=    11.9557   ZZ=    13.1004
   Eigenvalues:    10.4695    22.4566    31.6557
     10  C    Isotropic =   -56.8649   Anisotropy =   118.1357
   XX=   -59.7789   YX=     0.7005   ZX=    15.2507
   XY=  -110.6981   YY=   -70.6433   ZY=    84.4116
   XZ=    78.9303   YZ=    67.0481   ZZ=   -40.1724
   Eigenvalues:  -177.2611   -15.2257    21.8922
     11  H    Isotropic =    21.8565   Anisotropy =    10.2865
   XX=    22.5143   YX=    -5.8873   ZX=     3.5872
   XY=    -5.7652   YY=    22.1236   ZY=     3.1200
   XZ=     4.6099   YZ=    -0.1747   ZZ=    20.9315
   Eigenvalues:    14.1474    22.7079    28.7142
     12  H    Isotropic =    23.0691   Anisotropy =     9.4152
   XX=    25.3180   YX=    -3.6607   ZX=     1.9644
   XY=    -4.6154   YY=    24.6363   ZY=    -1.2860
   XZ=     2.8850   YZ=     2.2892   ZZ=    19.2530
   Eigenvalues:    17.7527    22.1087    29.3459
     13  H    Isotropic =    22.8437   Anisotropy =     5.5229
   XX=    22.0377   YX=    -3.7224   ZX=     2.4353
   XY=    -2.8659   YY=    23.7631   ZY=     0.6834
   XZ=     2.8809   YZ=     1.4688   ZZ=    22.7304
   Eigenvalues:    17.8945    24.1111    26.5257
     14  C    Isotropic =   114.5516   Anisotropy =   232.7842
   XX=   214.4266   YX=   -53.2704   ZX=    94.6823
   XY=   -65.6508   YY=    49.4936   ZY=   -18.7624
   XZ=    81.0554   YZ=    30.1027   ZZ=    79.7346
   Eigenvalues:     6.3675    67.5462   269.7410
     15  C    Isotropic =   126.8397   Anisotropy =   302.8896
   XX=   245.0056   YX=   -95.9794   ZX=    81.7468
   XY=  -148.6058   YY=    85.1626   ZY=     5.7190
   XZ=    64.9976   YZ=   -27.5243   ZZ=    50.3509
   Eigenvalues:     0.3329    51.4201   328.7661
     16  C    Isotropic =    84.4680   Anisotropy =   257.9743
   XX=   179.7629   YX=   -75.5064   ZX=    91.3294
   XY=  -107.4019   YY=    40.4802   ZY=   -30.5048
   XZ=    89.5151   YZ=    22.8027   ZZ=    33.1610
   Eigenvalues:   -36.0995    33.0527   256.4509
     17  C    Isotropic =     3.0232   Anisotropy =    65.8149
   XX=    33.3331   YX=    -5.1959   ZX=     7.3511
   XY=    34.5194   YY=   -50.8322   ZY=    50.9997
   XZ=   -40.3509   YZ=    -6.0391   ZZ=    26.5686
   Eigenvalues:   -60.5739    22.7436    46.8998
     18  H    Isotropic =    24.6054   Anisotropy =    11.1555
   XX=    20.7562   YX=     5.4269   ZX=    -0.4887
   XY=     4.3212   YY=    29.6538   ZY=     5.5013
   XZ=     3.1114   YZ=    -3.5317   ZZ=    23.4061
   Eigenvalues:    18.4713    23.3025    32.0423
     19  C    Isotropic =    43.3393   Anisotropy =   134.4230
   XX=    76.7896   YX=   -27.1958   ZX=    43.3980
   XY=   -23.7297   YY=    51.4994   ZY=   -31.5452
   XZ=    90.9058   YZ=   -26.9183   ZZ=     1.7291
   Eigenvalues:   -39.5143    36.5776   132.9547
     20  H    Isotropic =    21.4872   Anisotropy =    14.9254
   XX=    18.4908   YX=     0.0811   ZX=    -0.4652
   XY=     5.6884   YY=    17.7630   ZY=     7.1996
   XZ=     0.7050   YZ=     5.7198   ZZ=    28.2078
   Eigenvalues:    13.3792    19.6450    31.4374
     21  C    Isotropic =   -46.8567   Anisotropy =   103.6282
   XX=   -71.2424   YX=    51.6987   ZX=   -32.7184
   XY=    98.3022   YY=   -65.7131   ZY=     8.9836
   XZ=     5.3451   YZ=   -38.4715   ZZ=    -3.6145
   Eigenvalues:  -143.5302   -19.2686    22.2288
     22  H    Isotropic =    23.7333   Anisotropy =     6.7203
   XX=    20.0696   YX=     2.9754   ZX=     0.3616
   XY=     1.6253   YY=    25.5255   ZY=     3.5590
   XZ=     2.4262   YZ=     0.0494   ZZ=    25.6048
   Eigenvalues:    19.1471    23.8393    28.2135
     23  H    Isotropic =    22.0900   Anisotropy =     8.8668
   XX=    18.8004   YX=     2.4709   ZX=    -0.1872
   XY=     4.1237   YY=    23.5022   ZY=     3.2975
   XZ=    -0.2887   YZ=     4.1836   ZZ=    23.9675
   Eigenvalues:    16.5106    21.7582    28.0013
     24  H    Isotropic =    23.0223   Anisotropy =     4.1629
   XX=    20.3037   YX=     2.3723   ZX=    -1.0735
   XY=     2.2768   YY=    24.7418   ZY=     1.3144
   XZ=    -1.5133   YZ=     0.4321   ZZ=    24.0214
   Eigenvalues:    18.8534    24.4159    25.7975
     25  C    Isotropic =    88.3779   Anisotropy =    98.1679
   XX=    44.9698   YX=    -6.3288   ZX=    -3.6785
   XY=   -45.1246   YY=   147.7188   ZY=     5.7320
   XZ=   -34.2081   YZ=   -11.9473   ZZ=    72.4450
   Eigenvalues:    30.2035    81.1069   153.8232
     26  C    Isotropic =   138.3178   Anisotropy =   348.7745
   XX=     4.8921   YX=   -46.6522   ZX=   -41.2256
   XY=   -40.6421   YY=   359.3784   ZY=    28.8835
   XZ=     9.7629   YZ=    56.7317   ZZ=    50.6829
   Eigenvalues:    -2.6829    46.8022   370.8341
     27  C    Isotropic =    70.9704   Anisotropy =   282.5477
   XX=   -37.9434   YX=   -48.5257   ZX=   -15.6072
   XY=   -13.9559   YY=   249.7444   ZY=    40.6035
   XZ=   -52.6431   YZ=    32.3291   ZZ=     1.1102
   Eigenvalues:   -58.0063    11.5819   259.3355
     28  C    Isotropic =   -11.0236   Anisotropy =    68.7975
   XX=   -65.7374   YX=    -3.3373   ZX=     6.7874
   XY=     9.2003   YY=     9.6754   ZY=    -4.1960
   XZ=    62.2505   YZ=     2.7541   ZZ=    22.9912
   Eigenvalues:   -77.6882     9.7760    34.8414
     29  H    Isotropic =    23.4892   Anisotropy =    11.9557
   XX=    28.0860   YX=     4.2691   ZX=    -8.7268
   XY=    -0.0415   YY=    23.1135   ZY=    -1.6160
   XZ=    -0.3598   YZ=    -5.7511   ZZ=    19.2680
   Eigenvalues:    16.2517    22.7562    31.4597
     30  C    Isotropic =    -9.7187   Anisotropy =    76.9700
   XX=    -1.6183   YX=     3.5883   ZX=   -32.5841
   XY=     3.1536   YY=    41.1439   ZY=     7.7210
   XZ=   -51.8179   YZ=     6.0634   ZZ=   -68.6818
   Eigenvalues:   -89.5015    18.7507    41.5946
     31  H    Isotropic =    21.6075   Anisotropy =    12.7606
   XX=    19.3519   YX=    -1.0577   ZX=    -3.9666
   XY=    -2.4162   YY=    16.6094   ZY=     2.0999
   XZ=    -3.1983   YZ=    -1.4592   ZZ=    28.8611
   Eigenvalues:    15.6170    19.0909    30.1146
     32  C    Isotropic =    -1.4787   Anisotropy =   160.8767
   XX=    -4.3725   YX=   -23.0927   ZX=    36.3083
   XY=   -20.1059   YY=    97.2017   ZY=    35.2040
   XZ=    51.3695   YZ=    38.7192   ZZ=   -97.2652
   Eigenvalues:  -122.8394    12.6310   105.7725
     33  H    Isotropic =    16.6822   Anisotropy =    15.3831
   XX=    23.1167   YX=     4.7746   ZX=    -2.4905
   XY=     3.1413   YY=     1.9520   ZY=    -4.4512
   XZ=     0.9449   YZ=    -6.2222   ZZ=    24.9778
   Eigenvalues:     0.1763    22.9326    26.9375
     34  H    Isotropic =    17.8064   Anisotropy =    13.9923
   XX=    23.4636   YX=     2.7797   ZX=    -1.9438
   XY=     3.4747   YY=     5.2995   ZY=    -3.7612
   XZ=    -1.4061   YZ=    -4.8506   ZZ=    24.6562
   Eigenvalues:     4.0024    22.2822    27.1346
     35  H    Isotropic =    12.7832   Anisotropy =    18.8096
   XX=    24.5461   YX=     6.0628   ZX=     0.5598
   XY=     4.2691   YY=    -9.7332   ZY=    -5.8302
   XZ=     1.5345   YZ=    -7.0745   ZZ=    23.5365
   Eigenvalues:   -11.7069    24.7335    25.3229
     36  Sn   Isotropic =  1878.3527   Anisotropy =   383.9381
   XX=  1767.6106   YX=   -93.5375   ZX=   -58.2723
   XY=  -123.5679   YY=  2090.7104   ZY=   -70.8600
   XZ=  -122.8873   YZ=  -106.7626   ZZ=  1776.7373
   Eigenvalues:  1638.2024  1862.5443  2134.3115
     37  P    Isotropic =   265.0979   Anisotropy =    86.4345
   XX=   319.1471   YX=    17.9644   ZX=   -14.7257
   XY=    -4.4977   YY=   269.9042   ZY=   -17.2472
   XZ=   -17.1277   YZ=    -8.1975   ZZ=   206.2423
   Eigenvalues:   202.0117   270.5610   322.7209
     38  C    Isotropic =    65.6314   Anisotropy =   277.7205
   XX=   173.5020   YX=    80.3539   ZX=     1.6682
   XY=   178.2857   YY=    31.3785   ZY=    15.2788
   XZ=   -49.4169   YZ=     9.8208   ZZ=    -7.9863
   Eigenvalues:   -56.1991     2.3148   250.7784
     39  C    Isotropic =    73.8237   Anisotropy =   256.5009
   XX=   169.4955   YX=   103.8738   ZX=    -9.0630
   XY=   127.5422   YY=    53.0776   ZY=   -46.4680
   XZ=    -2.0322   YZ=   -53.8066   ZZ=    -1.1021
   Eigenvalues:   -51.6846    28.3314   244.8243
     40  C    Isotropic =    63.9387   Anisotropy =   230.3949
   XX=   159.0641   YX=    81.7403   ZX=    -9.9310
   XY=    88.2004   YY=    89.0467   ZY=     6.0154
   XZ=   -34.4215   YZ=   -14.4930   ZZ=   -56.2946
   Eigenvalues:   -58.7226    33.0035   217.5353
     41  C    Isotropic =    59.4455   Anisotropy =   165.9688
   XX=   132.1560   YX=    58.4506   ZX=    -8.3086
   XY=    55.5319   YY=    82.9770   ZY=    13.4543
   XZ=    14.2000   YZ=    12.8482   ZZ=   -36.7965
   Eigenvalues:   -38.2955    46.5406   170.0913
     42  H    Isotropic =    24.5778   Anisotropy =    18.0554
   XX=    21.4047   YX=    -2.9864   ZX=     5.9948
   XY=    -6.8488   YY=    25.2361   ZY=    -6.8717
   XZ=     3.9713   YZ=    -7.4822   ZZ=    27.0926
   Eigenvalues:    18.0406    19.0780    36.6147
     43  C    Isotropic =    49.2679   Anisotropy =   153.1852
   XX=   120.6212   YX=    62.5434   ZX=     1.7592
   XY=    55.7790   YY=    17.1016   ZY=   -48.5864
   XZ=    -6.5884   YZ=   -49.8108   ZZ=    10.0810
   Eigenvalues:   -45.7855    42.1978   151.3913
     44  H    Isotropic =    25.3320   Anisotropy =    18.3903
   XX=    23.8805   YX=    -7.5465   ZX=    -0.0996
   XY=    -9.7368   YY=    32.0248   ZY=    -2.6413
   XZ=     1.9535   YZ=     0.9049   ZZ=    20.0906
   Eigenvalues:    18.3392    20.0646    37.5921
     45  C    Isotropic =     1.9981   Anisotropy =    75.7641
   XX=    50.0446   YX=     1.2382   ZX=     5.8874
   XY=    -4.0011   YY=   -65.2712   ZY=    38.4712
   XZ=     8.9977   YZ=    34.0398   ZZ=    21.2210
   Eigenvalues:   -78.5732    32.0601    52.5075
     46  H    Isotropic =    26.2958   Anisotropy =     5.8826
   XX=    27.4184   YX=    -1.8047   ZX=     1.8568
   XY=    -2.1858   YY=    27.6823   ZY=    -1.6171
   XZ=    -0.8638   YZ=    -2.9888   ZZ=    23.7866
   Eigenvalues:    22.6809    25.9889    30.2175
     47  H    Isotropic =    26.1666   Anisotropy =     5.8676
   XX=    26.8559   YX=    -2.5592   ZX=     1.1821
   XY=    -1.0614   YY=    27.6587   ZY=    -2.2198
   XZ=     2.9043   YZ=    -0.6729   ZZ=    23.9851
   Eigenvalues:    22.8700    25.5513    30.0783
     48  H    Isotropic =    27.9293   Anisotropy =     5.1761
   XX=    29.5609   YX=     0.8360   ZX=     0.2687
   XY=     3.8418   YY=    28.2465   ZY=    -0.3855
   XZ=    -0.9023   YZ=    -0.4427   ZZ=    25.9804
   Eigenvalues:    25.9004    26.5075    31.3800
     49  C    Isotropic =    40.3009   Anisotropy =   158.7808
   XX=    14.8216   YX=   -46.3478   ZX=     6.0981
   XY=   -38.8053   YY=    69.0735   ZY=   -67.3969
   XZ=    18.7672   YZ=   -89.8562   ZZ=    37.0077
   Eigenvalues:   -34.7538     9.5018   146.1548
     50  C    Isotropic =    59.0267   Anisotropy =   215.7142
   XX=   -10.4301   YX=    -1.2616   ZX=    59.6978
   XY=    -8.3079   YY=   104.0775   ZY=   -98.1980
   XZ=    58.6245   YZ=  -100.7438   ZZ=    83.4327
   Eigenvalues:   -53.2669    27.5108   202.8362
     51  C    Isotropic =    29.1817   Anisotropy =   176.3711
   XX=   -69.7033   YX=   -36.1591   ZX=    45.6268
   XY=   -15.0595   YY=    82.3254   ZY=   -66.6975
   XZ=    25.4814   YZ=   -52.2141   ZZ=    74.9230
   Eigenvalues:   -78.9380    19.7207   146.7624
     52  C    Isotropic =    19.9616   Anisotropy =   188.5547
   XX=  -106.6193   YX=   -58.1956   ZX=    16.7108
   XY=    15.9905   YY=   100.1721   ZY=   -34.5456
   XZ=   -57.6364   YZ=   -85.4358   ZZ=    66.3319
   Eigenvalues:  -112.9991    27.2191   145.6647
     53  H    Isotropic =    22.9293   Anisotropy =     9.9273
   XX=    26.7177   YX=     5.8925   ZX=     1.3772
   XY=     0.2870   YY=    20.7397   ZY=     1.1807
   XZ=     4.4993   YZ=     2.9999   ZZ=    21.3304
   Eigenvalues:    18.8785    20.3619    29.5475
     54  C    Isotropic =    -1.1368   Anisotropy =   117.2743
   XX=     1.3229   YX=     4.7821   ZX=    61.7462
   XY=    20.5300   YY=    18.3111   ZY=   -69.4133
   XZ=    55.5467   YZ=   -61.4629   ZZ=   -23.0443
   Eigenvalues:  -101.2971    20.8407    77.0461
     55  H    Isotropic =    23.7437   Anisotropy =    12.3147
   XX=    18.7859   YX=    -0.2134   ZX=     6.6909
   XY=    -1.6149   YY=    25.1122   ZY=     2.2518
   XZ=     7.3176   YZ=     3.6460   ZZ=    27.3330
   Eigenvalues:    14.3750    24.9027    31.9535
     56  C    Isotropic =    55.3700   Anisotropy =   387.8936
   XX=     3.6457   YX=   -94.4056   ZX=    -8.8850
   XY=  -107.4841   YY=   103.9669   ZY=  -214.5848
   XZ=     5.3130   YZ=  -212.0534   ZZ=    58.4974
   Eigenvalues:  -163.7482    15.8925   313.9657
     57  H    Isotropic =    14.7988   Anisotropy =    17.0470
   XX=    22.2765   YX=     4.3489   ZX=    -1.7570
   XY=     5.1107   YY=     7.6727   ZY=    13.4987
   XZ=    -4.1407   YZ=    15.6524   ZZ=    14.4472
   Eigenvalues:    -5.0277    23.2607    26.1635
     58  H    Isotropic =    19.3856   Anisotropy =    13.1553
   XX=    23.6074   YX=     4.6950   ZX=     0.9280
   XY=     4.5521   YY=    15.4265   ZY=     8.3520
   XZ=     1.3747   YZ=     6.0631   ZZ=    19.1228
   Eigenvalues:     9.1912    20.8097    28.1558
     59  H    Isotropic =    13.4212   Anisotropy =    19.2217
   XX=    24.4580   YX=     4.7709   ZX=    -4.4086
   XY=     6.6918   YY=     5.3627   ZY=    16.8937
   XZ=    -5.9896   YZ=    14.2619   ZZ=    10.4428
   Eigenvalues:    -9.6353    23.6633    26.2356
     60  C    Isotropic =    33.8581   Anisotropy =   161.6593
   XX=    48.0004   YX=   -52.1459   ZX=    15.6814
   XY=   -59.1688   YY=   107.0588   ZY=    -2.2566
   XZ=    11.5728   YZ=   -15.4405   ZZ=   -53.4850
   Eigenvalues:   -55.2998    15.2430   141.6309
     61  C    Isotropic =    61.3230   Anisotropy =   234.0164
   XX=     2.9788   YX=   -94.3311   ZX=   -29.2136
   XY=   -91.1043   YY=   173.4147   ZY=   -41.1192
   XZ=   -22.2452   YZ=   -37.2970   ZZ=     7.5756
   Eigenvalues:   -61.0669    27.7020   217.3340
     62  C    Isotropic =    21.9970   Anisotropy =   153.2082
   XX=   -37.6505   YX=   -89.1636   ZX=    23.4149
   XY=   -70.6015   YY=    84.6466   ZY=    23.3054
   XZ=    15.3018   YZ=     0.2028   ZZ=    18.9948
   Eigenvalues:   -82.1363    23.9915   124.1358
     63  C    Isotropic =     5.0467   Anisotropy =   127.8306
   XX=   -64.0883   YX=   -61.1726   ZX=    55.2654
   XY=   -23.1696   YY=    77.9891   ZY=   -19.1328
   XZ=    38.2199   YZ=    29.6221   ZZ=     1.2392
   Eigenvalues:   -97.5741    22.4471    90.2670
     64  H    Isotropic =    22.8818   Anisotropy =    10.3704
   XX=    23.9985   YX=     1.3177   ZX=    -4.1828
   XY=     0.6515   YY=    18.7149   ZY=    -0.7361
   XZ=    -5.1829   YZ=     0.4542   ZZ=    25.9321
   Eigenvalues:    18.4112    20.4389    29.7954
     65  C    Isotropic =     6.1625   Anisotropy =   154.8354
   XX=     7.4570   YX=   -91.0421   ZX=   -44.7709
   XY=   -59.0381   YY=    52.3007   ZY=   -47.8761
   XZ=   -58.9370   YZ=   -58.7253   ZZ=   -41.2702
   Eigenvalues:  -118.6587    27.7600   109.3861
     66  H    Isotropic =    23.4434   Anisotropy =    14.9936
   XX=    20.4512   YX=    -1.2619   ZX=    -2.7212
   XY=    -6.7163   YY=    19.2321   ZY=     3.0418
   XZ=    -3.0910   YZ=     5.7194   ZZ=    30.6470
   Eigenvalues:    15.6346    21.2566    33.4392
     67  C    Isotropic =    52.6372   Anisotropy =   392.4946
   XX=    60.1630   YX=  -102.4326   ZX=    47.5415
   XY=  -111.1658   YY=   248.7934   ZY=   -54.5371
   XZ=    77.7860   YZ=   -85.4526   ZZ=  -151.0447
   Eigenvalues:  -172.4892    16.1006   314.3003
     68  H    Isotropic =    15.1805   Anisotropy =    16.1438
   XX=    19.6246   YX=     6.9184   ZX=    -1.7809
   XY=    10.7952   YY=     1.6043   ZY=     4.6546
   XZ=    -3.6650   YZ=     7.6476   ZZ=    24.3127
   Eigenvalues:    -3.6376    23.2361    25.9431
     69  H    Isotropic =    19.3876   Anisotropy =    13.5949
   XX=    20.4167   YX=     7.3150   ZX=    -4.8374
   XY=     3.3943   YY=    12.8755   ZY=     1.4983
   XZ=    -5.8769   YZ=     6.2700   ZZ=    24.8706
   Eigenvalues:     7.9556    21.7563    28.4508
     70  H    Isotropic =    13.7939   Anisotropy =    19.0167
   XX=    20.6805   YX=    11.4172   ZX=    -2.0622
   XY=    13.7115   YY=    -1.3831   ZY=     3.1933
   XZ=    -4.8834   YZ=     9.5327   ZZ=    22.0842
   Eigenvalues:    -8.7658    23.6757    26.4717
     71  Br   Isotropic =  2317.4254   Anisotropy =   418.6203
   XX=  2033.8701   YX=    97.3928   ZX=    57.5455
   XY=   149.6601   YY=  2343.5003   ZY=    47.5635
   XZ=   101.7570   YZ=    14.0422   ZZ=  2574.9060
   Eigenvalues:  1983.3924  2372.3783  2596.5056
     72  Br   Isotropic =  2507.4874   Anisotropy =   441.4508
   XX=  2434.1560   YX=   -88.8397   ZX=   -53.9162
   XY=   -70.9209   YY=  2581.9923   ZY=   220.9088
   XZ=   -65.2161   YZ=   234.2948   ZZ=  2506.3138
   Eigenvalues:  2313.0414  2407.6328  2801.7879
     73  C    Isotropic =   176.4271   Anisotropy =    32.7004
   XX=   170.5677   YX=    -2.1086   ZX=    15.9367
   XY=    -6.8846   YY=   166.9148   ZY=    -5.1881
   XZ=     5.9709   YZ=    -7.2423   ZZ=   191.7988
   Eigenvalues:   163.8101   167.2439   198.2274
     74  H    Isotropic =    32.1341   Anisotropy =     8.6161
   XX=    34.8267   YX=    -4.1462   ZX=     1.1122
   XY=    -2.7546   YY=    33.1826   ZY=    -2.2935
   XZ=    -1.2548   YZ=    -3.3554   ZZ=    28.3929
   Eigenvalues:    26.7489    31.7751    37.8781
     75  H    Isotropic =    31.6817   Anisotropy =     9.1245
   XX=    34.5920   YX=     2.4738   ZX=     2.1430
   XY=     7.3807   YY=    29.2702   ZY=    -1.0194
   XZ=     1.4849   YZ=    -0.2934   ZZ=    31.1827
   Eigenvalues:    25.8989    31.3814    37.7646
     76  H    Isotropic =    32.0972   Anisotropy =    14.2994
   XX=    29.6676   YX=     0.2143   ZX=    -0.2825
   XY=     1.7036   YY=    28.6475   ZY=    -6.4356
   XZ=    -2.7043   YZ=    -6.7035   ZZ=    37.9766
   Eigenvalues:    25.2484    29.4131    41.6302
     77  C    Isotropic =   172.6703   Anisotropy =    28.6009
   XX=   180.9062   YX=     9.8852   ZX=    -3.0792
   XY=    12.8632   YY=   174.1570   ZY=    -7.5745
   XZ=   -10.4729   YZ=    -1.7206   ZZ=   162.9476
   Eigenvalues:   160.5866   165.6867   191.7375
     78  H    Isotropic =    33.3526   Anisotropy =     7.3807
   XX=    32.2872   YX=     2.9649   ZX=     3.3119
   XY=     3.3234   YY=    36.2801   ZY=     0.2981
   XZ=     2.1132   YZ=    -0.3937   ZZ=    31.4904
   Eigenvalues:    28.5103    33.2744    38.2731
     79  H    Isotropic =    32.1347   Anisotropy =    15.5579
   XX=    29.3479   YX=     1.3863   ZX=    -0.9322
   XY=     2.5706   YY=    36.2663   ZY=    -8.2097
   XZ=    -1.3914   YZ=    -8.0568   ZZ=    30.7900
   Eigenvalues:    24.9356    28.9619    42.5067
     80  H    Isotropic =    33.3788   Anisotropy =     8.2321
   XX=    34.6493   YX=    -4.4722   ZX=    -4.6553
   XY=    -1.3432   YY=    35.8500   ZY=    -1.9404
   XZ=    -5.9745   YZ=    -2.1861   ZZ=    29.6369
   Eigenvalues:    25.2281    36.0413    38.8669
 End of Minotr F.D. properties file   721 does not exist.
 End of Minotr F.D. properties file   722 does not exist.
 End of Minotr F.D. properties file   788 does not exist.
 Leave Link 1002 at Fri Nov 29 18:46:23 2019, MaxMem=   939524096 cpu:     97697.1
 (Enter /scr/programas/g09/l601.exe)
 Copying SCF densities to generalized density rwf, IOpCl= 0 IROHF=0.

 **********************************************************************

            Population analysis using the SCF density.

 **********************************************************************

 Orbital symmetries:
       Occupied  (A) (A) (A) (A) (A) (A) (A) (A) (A) (A) (A) (A)
                 (A) (A) (A) (A) (A) (A) (A) (A) (A) (A) (A) (A)
                 (A) (A) (A) (A) (A) (A) (A) (A) (A) (A) (A) (A)
                 (A) (A) (A) (A) (A) (A) (A) (A) (A) (A) (A) (A)
                 (A) (A) (A) (A) (A) (A) (A) (A) (A) (A) (A) (A)
                 (A) (A) (A) (A) (A) (A) (A) (A) (A) (A) (A) (A)
                 (A) (A) (A) (A) (A) (A) (A) (A) (A) (A) (A) (A)
                 (A) (A) (A) (A) (A) (A) (A) (A) (A) (A) (A) (A)
                 (A) (A) (A) (A) (A) (A) (A) (A) (A) (A) (A) (A)
                 (A) (A) (A) (A) (A) (A) (A) (A) (A) (A) (A) (A)
                 (A) (A) (A) (A) (A) (A) (A) (A) (A) (A) (A) (A)
                 (A) (A) (A) (A) (A) (A) (A) (A) (A) (A) (A) (A)
                 (A) (A) (A) (A) (A) (A) (A) (A) (A) (A) (A) (A)
                 (A) (A) (A) (A) (A) (A) (A) (A) (A) (A) (A) (A)
                 (A) (A) (A) (A) (A) (A) (A) (A) (A) (A) (A) (A)
                 (A) (A) (A) (A) (A) (A) (A) (A) (A) (A) (A) (A)
                 (A) (A) (A) (A) (A) (A) (A) (A) (A) (A) (A) (A)
                 (A) (A) (A) (A) (A) (A) (A) (A) (A) (A) (A) (A)
                 (A) (A) (A) (A) (A) (A) (A) (A) (A) (A) (A) (A)
                 (A) (A) (A) (A) (A) (A) (A) (A) (A) (A) (A) (A)
                 (A) (A) (A) (A) (A) (A)
       Virtual   (A) (A) (A) (A) (A) (A) (A) (A) (A) (A) (A) (A)
                 (A) (A) (A) (A) (A) (A) (A) (A) (A) (A) (A) (A)
                 (A) (A) (A) (A) (A) (A) (A) (A) (A) (A) (A) (A)
                 (A) (A) (A) (A) (A) (A) (A) (A) (A) (A) (A) (A)
                 (A) (A) (A) (A) (A) (A) (A) (A) (A) (A) (A) (A)
                 (A) (A) (A) (A) (A) (A) (A) (A) (A) (A) (A) (A)
                 (A) (A) (A) (A) (A) (A) (A) (A) (A) (A) (A) (A)
                 (A) (A) (A) (A) (A) (A) (A) (A) (A) (A) (A) (A)
                 (A) (A) (A) (A) (A) (A) (A) (A) (A) (A) (A) (A)
                 (A) (A) (A) (A) (A) (A) (A) (A) (A) (A) (A) (A)
                 (A) (A) (A) (A) (A) (A) (A) (A) (A) (A) (A) (A)
                 (A) (A) (A) (A) (A) (A) (A) (A) (A) (A) (A) (A)
                 (A) (A) (A) (A) (A) (A) (A) (A) (A) (A) (A) (A)
                 (A) (A) (A) (A) (A) (A) (A) (A) (A) (A) (A) (A)
                 (A) (A) (A) (A) (A) (A) (A) (A) (A) (A) (A) (A)
                 (A) (A) (A) (A) (A) (A) (A) (A) (A) (A) (A) (A)
                 (A) (A) (A) (A) (A) (A) (A) (A) (A) (A) (A) (A)
                 (A) (A) (A) (A) (A) (A) (A) (A) (A) (A) (A) (A)
                 (A) (A) (A) (A) (A) (A) (A) (A) (A) (A) (A) (A)
                 (A) (A) (A) (A) (A) (A) (A) (A) (A) (A) (A) (A)
                 (A) (A) (A) (A) (A) (A) (A) (A) (A) (A) (A) (A)
                 (A) (A) (A) (A) (A) (A) (A) (A) (A) (A) (A) (A)
                 (A) (A) (A) (A) (A) (A) (A) (A) (A) (A) (A) (A)
                 (A) (A) (A) (A) (A) (A) (A) (A) (A) (A) (A) (A)
                 (A) (A) (A) (A) (A) (A) (A) (A) (A) (A) (A) (A)
                 (A) (A) (A) (A) (A) (A) (A) (A) (A) (A) (A) (A)
                 (A) (A) (A) (A) (A) (A) (A) (A) (A) (A) (A) (A)
                 (A) (A) (A) (A) (A) (A) (A) (A) (A) (A) (A) (A)
                 (A) (A) (A) (A) (A) (A) (A) (A) (A) (A) (A) (A)
                 (A) (A) (A) (A) (A) (A) (A) (A) (A) (A) (A) (A)
                 (A) (A) (A) (A) (A) (A) (A) (A) (A) (A) (A) (A)
                 (A) (A) (A) (A) (A) (A) (A) (A) (A) (A) (A) (A)
                 (A) (A) (A) (A) (A) (A) (A) (A) (A) (A) (A) (A)
                 (A) (A) (A) (A) (A) (A) (A) (A) (A) (A) (A) (A)
                 (A) (A) (A) (A) (A) (A) (A) (A) (A) (A) (A) (A)
                 (A) (A) (A) (A) (A) (A) (A) (A) (A) (A) (A) (A)
                 (A) (A) (A) (A) (A) (A) (A) (A) (A) (A) (A) (A)
                 (A) (A) (A) (A) (A) (A) (A) (A) (A) (A) (A) (A)
[...]
 Alpha virt. eigenvalues --    1.42557   1.42647   1.42972   1.43539   1.43785
 Alpha virt. eigenvalues --    1.44006   1.44431   1.44538   1.44787   1.44813
 Alpha virt. eigenvalues --    1.45032   1.45435   1.45593   1.46225   1.46591
 Alpha virt. eigenvalues --    1.46830   1.47124   1.47661   1.47741   1.48222
 Alpha virt. eigenvalues --    1.48252   1.48764   1.48881   1.49347   1.49415
 Alpha virt. eigenvalues --    1.50065   1.50109   1.50855   1.51031   1.51125
 Alpha virt. eigenvalues --    1.51659   1.51994   1.52625   1.53015   1.53240
 Alpha virt. eigenvalues --    1.53542   1.53754   1.54216   1.54771   1.55275
 Alpha virt. eigenvalues --    1.55601   1.56158   1.56370   1.56766   1.57165
 Alpha virt. eigenvalues --    1.57332   1.57680   1.57805   1.57979   1.58102
 Alpha virt. eigenvalues --    1.58485   1.58758   1.59069   1.59472   1.59733
 Alpha virt. eigenvalues --    1.59874   1.60364   1.60439   1.60809   1.61090
 Alpha virt. eigenvalues --    1.61223   1.61560   1.61740   1.62315   1.62487
 Alpha virt. eigenvalues --    1.62747   1.62895   1.63034   1.63260   1.63497
 Alpha virt. eigenvalues --    1.63617   1.64069   1.64571   1.64726   1.65279
 Alpha virt. eigenvalues --    1.65479   1.65716   1.66097   1.66380   1.66540
 Alpha virt. eigenvalues --    1.66611   1.67266   1.67420   1.67757   1.68007
 Alpha virt. eigenvalues --    1.68331   1.68441   1.68756   1.68973   1.69234
 Alpha virt. eigenvalues --    1.69481   1.69737   1.70023   1.70526   1.70598
 Alpha virt. eigenvalues --    1.70752   1.71037   1.71212   1.71366   1.71598
 Alpha virt. eigenvalues --    1.71908   1.72242   1.72528   1.72906   1.72951
 Alpha virt. eigenvalues --    1.73408   1.73598   1.73778   1.74039   1.74329
 Alpha virt. eigenvalues --    1.74571   1.74908   1.74993   1.75156   1.75571
 Alpha virt. eigenvalues --    1.75966   1.76444   1.76736   1.77208   1.77683
 Alpha virt. eigenvalues --    1.78250   1.78919   1.79391   1.79800   1.80305
 Alpha virt. eigenvalues --    1.80916   1.81126   1.81807   1.82315   1.82484
 Alpha virt. eigenvalues --    1.83091   1.83361   1.84222   1.84803   1.85165
 Alpha virt. eigenvalues --    1.85346   1.85940   1.86027   1.86818   1.86982
 Alpha virt. eigenvalues --    1.87314   1.88419   1.88484   1.88988   1.89462
 Alpha virt. eigenvalues --    1.89819   1.90122   1.90371   1.91024   1.91455
 Alpha virt. eigenvalues --    1.91642   1.92017   1.92185   1.92959   1.93281
 Alpha virt. eigenvalues --    1.93456   1.94143   1.94534   1.95860   1.95936
 Alpha virt. eigenvalues --    1.96167   1.96397   1.96721   1.97414   1.98315
 Alpha virt. eigenvalues --    1.98701   1.99098   1.99129   1.99439   1.99694
 Alpha virt. eigenvalues --    2.00094   2.00631   2.01112   2.01455   2.01948
 Alpha virt. eigenvalues --    2.02416   2.02768   2.03335   2.03551   2.03819
 Alpha virt. eigenvalues --    2.03854   2.04096   2.04288   2.04404   2.04705
 Alpha virt. eigenvalues --    2.05143   2.05215   2.05686   2.06027   2.06321
 Alpha virt. eigenvalues --    2.06527   2.06920   2.07326   2.07417   2.08185
 Alpha virt. eigenvalues --    2.08606   2.08769   2.09085   2.09328   2.10029
 Alpha virt. eigenvalues --    2.10523   2.10744   2.11215   2.11546   2.12302
 Alpha virt. eigenvalues --    2.12843   2.13327   2.13701   2.13931   2.14382
 Alpha virt. eigenvalues --    2.14422   2.15380   2.15559   2.15731   2.16013
 Alpha virt. eigenvalues --    2.16472   2.16643   2.17497   2.17866   2.18307
 Alpha virt. eigenvalues --    2.18567   2.19044   2.19262   2.19437   2.19594
 Alpha virt. eigenvalues --    2.20028   2.20320   2.20706   2.21201   2.21283
 Alpha virt. eigenvalues --    2.21729   2.22053   2.22513   2.22850   2.23557
 Alpha virt. eigenvalues --    2.24255   2.24870   2.25080   2.26233   2.26631
 Alpha virt. eigenvalues --    2.27360   2.27722   2.28288   2.29067   2.29413
 Alpha virt. eigenvalues --    2.29711   2.30203   2.30557   2.31056   2.31560
 Alpha virt. eigenvalues --    2.32140   2.32297   2.32667   2.32936   2.33794
 Alpha virt. eigenvalues --    2.33936   2.34100   2.34384   2.34714   2.35147
 Alpha virt. eigenvalues --    2.35261   2.35917   2.35963   2.36065   2.36659
 Alpha virt. eigenvalues --    2.36804   2.37317   2.37912   2.38258   2.38665
 Alpha virt. eigenvalues --    2.38889   2.39316   2.39443   2.40258   2.40670
 Alpha virt. eigenvalues --    2.40914   2.41316   2.41537   2.42474   2.42760
 Alpha virt. eigenvalues --    2.43248   2.43935   2.44127   2.44366   2.44873
 Alpha virt. eigenvalues --    2.45885   2.46183   2.46436   2.47595   2.48105
 Alpha virt. eigenvalues --    2.48736   2.48989   2.49364   2.49758   2.50247
 Alpha virt. eigenvalues --    2.50582   2.51185   2.51732   2.52516   2.52724
 Alpha virt. eigenvalues --    2.53387   2.54287   2.54875   2.55326   2.55701
 Alpha virt. eigenvalues --    2.56422   2.57043   2.57739   2.58314   2.58626
 Alpha virt. eigenvalues --    2.59101   2.59416   2.59979   2.60731   2.61273
 Alpha virt. eigenvalues --    2.61439   2.61694   2.62136   2.62619   2.63059
 Alpha virt. eigenvalues --    2.63131   2.63274   2.64474   2.65236   2.65629
 Alpha virt. eigenvalues --    2.65777   2.67087   2.67212   2.67680   2.67800
 Alpha virt. eigenvalues --    2.68346   2.68878   2.69131   2.69625   2.70447
 Alpha virt. eigenvalues --    2.70524   2.70854   2.71483   2.71899   2.72274
 Alpha virt. eigenvalues --    2.72542   2.72803   2.73183   2.73900   2.73944
 Alpha virt. eigenvalues --    2.74248   2.74670   2.74802   2.75421   2.76248
 Alpha virt. eigenvalues --    2.76570   2.76729   2.77123   2.77510   2.78370
 Alpha virt. eigenvalues --    2.78827   2.79744   2.80764   2.82463   2.83318
 Alpha virt. eigenvalues --    2.83505   2.83701   2.84148   2.85075   2.85863
 Alpha virt. eigenvalues --    2.86101   2.86725   2.87230   2.87690   2.88202
 Alpha virt. eigenvalues --    2.90066   2.90585   2.90751   2.91476   2.92093
 Alpha virt. eigenvalues --    2.92768   2.94553   2.95059   2.95278   2.95806
 Alpha virt. eigenvalues --    2.95951   2.96254   2.96811   2.97250   2.97926
 Alpha virt. eigenvalues --    2.98181   2.98683   2.99076   2.99292   2.99443
 Alpha virt. eigenvalues --    2.99791   3.00323   3.00884   3.01268   3.01519
 Alpha virt. eigenvalues --    3.02312   3.03205   3.03809   3.04197   3.05528
 Alpha virt. eigenvalues --    3.05727   3.06408   3.08104   3.08771   3.11249
 Alpha virt. eigenvalues --    3.12015   3.12700   3.13067   3.13318   3.13509
 Alpha virt. eigenvalues --    3.13999   3.14866   3.14981   3.15062   3.15512
 Alpha virt. eigenvalues --    3.16223   3.16302   3.16899   3.17708   3.18386
 Alpha virt. eigenvalues --    3.19784   3.20014   3.20766   3.21834   3.21903
 Alpha virt. eigenvalues --    3.22614   3.23070   3.23911   3.24229   3.24485
 Alpha virt. eigenvalues --    3.25243   3.25972   3.26058   3.27279   3.28860
 Alpha virt. eigenvalues --    3.30306   3.31627   3.32602   3.33239   3.33573
 Alpha virt. eigenvalues --    3.34763   3.37064   3.37902   3.40224   3.45722
 Alpha virt. eigenvalues --    3.46033   3.46715   3.47406   3.47777   3.48724
 Alpha virt. eigenvalues --    3.50368   3.51564   3.51960   3.52168   3.52735
 Alpha virt. eigenvalues --    3.53264   3.53843   3.58270   3.65533   3.69045
 Alpha virt. eigenvalues --    3.75304   3.91703   3.92640   3.96456   3.99342
 Alpha virt. eigenvalues --    4.06960   4.09826   4.13045   4.13282   4.14170
 Alpha virt. eigenvalues --    4.15142   4.15898   4.16493   4.17647   4.18702
 Alpha virt. eigenvalues --    4.18914   4.19256   4.20004   4.20955   4.22958
 Alpha virt. eigenvalues --    4.24509   4.24538   4.25923   4.26382   4.27733
 Alpha virt. eigenvalues --    4.28030   4.28721   4.30022   4.31502   4.33538
 Alpha virt. eigenvalues --    4.33707   4.34265   4.34868   4.35546   4.36142
 Alpha virt. eigenvalues --    4.36513   4.36629   4.37453   4.37763   4.38945
 Alpha virt. eigenvalues --    4.39732   4.40481   4.40625   4.40805   4.41121
 Alpha virt. eigenvalues --    4.42110   4.42877   4.43570   4.43871   4.44668
 Alpha virt. eigenvalues --    4.45066   4.45615   4.47295   4.48019   4.50689
 Alpha virt. eigenvalues --    4.51655   4.53186   4.54239   4.56552   4.57651
 Alpha virt. eigenvalues --    4.62885   4.77784   4.78062   4.78538   4.78783
 Alpha virt. eigenvalues --    4.78980   4.79293   5.58469   5.74826   5.80938
 Alpha virt. eigenvalues --    5.89720   5.94031   5.96978   5.99037   6.04370
 Alpha virt. eigenvalues --    6.05279   6.06843   6.10894   6.11560   6.17260
 Alpha virt. eigenvalues --    6.23006   6.32253   6.33424   6.63102   6.63173
 Alpha virt. eigenvalues --    6.64456   6.65340   6.66495   6.68127   6.77225
 Alpha virt. eigenvalues --    6.78017   6.78774   6.79273   6.80005   6.81597
 Alpha virt. eigenvalues --    6.81729   6.83421   6.84622   6.88497   6.89653
 Alpha virt. eigenvalues --    6.90107   6.90334   6.91690   6.92587   6.93607
 Alpha virt. eigenvalues --    6.95258   6.96512   6.98351   6.99238   7.00829
 Alpha virt. eigenvalues --    7.03653   7.05488   7.07619   7.08760   7.09387
 Alpha virt. eigenvalues --    7.09541   7.10995   7.13118   7.24009   7.24420
 Alpha virt. eigenvalues --    7.24727   7.26916   7.27106   7.28323   7.72740
 Alpha virt. eigenvalues --    7.75760   7.76808   7.79895   7.81321   7.86672
 Alpha virt. eigenvalues --    8.49310   8.50237   8.50495   8.51093   8.51518
 Alpha virt. eigenvalues --    8.52455   8.53202   8.56204   8.63310   9.06679
 Alpha virt. eigenvalues --    9.93159  10.07966  10.08800  10.15067  10.28706
 Alpha virt. eigenvalues --   14.16128  14.21750  14.23766  14.38134  15.80049
 Alpha virt. eigenvalues --   16.95990  16.98645  17.02887  17.03553  17.04208
 Alpha virt. eigenvalues --   17.04427  17.04536  17.05137  17.05618  17.06092
 Alpha virt. eigenvalues --   17.06581  17.07728  17.08410  17.08500  17.10337
 Alpha virt. eigenvalues --   17.13625  17.14313  17.15869  17.16366  17.16752
 Alpha virt. eigenvalues --   17.18586  17.20806  17.22674  17.23746  17.25444
 Alpha virt. eigenvalues --   17.26963  17.29287  17.30366  17.30796  17.32892
 Alpha virt. eigenvalues --   17.32982  17.33334  17.33885  17.35283  17.35935
 Alpha virt. eigenvalues --   17.37621  17.40407  17.43077  20.32231  20.36138
 Alpha virt. eigenvalues --   20.39105  20.42092  20.49915  20.52073  21.11775
 Alpha virt. eigenvalues --   21.21304  21.37941  25.56178  25.69266  25.74922
 Alpha virt. eigenvalues --   26.21402  31.76247  31.78818  31.81992  31.83020
 Alpha virt. eigenvalues --   31.89086  42.95372  43.03974  43.05507  43.09398
 Alpha virt. eigenvalues --   43.17389  61.87643  61.92467  63.15463  65.25564
 Alpha virt. eigenvalues --   65.40364  82.25078  86.21809  86.29405  86.43094
 Alpha virt. eigenvalues --   89.20574  89.23509  89.29349  89.29972  89.30137
 Alpha virt. eigenvalues --   89.30701  89.31026  89.31348  89.32111  89.32784
 Alpha virt. eigenvalues --   89.32987  89.33705  89.34740  89.35446  89.35741
 Alpha virt. eigenvalues --   89.38871  89.39973  89.41437  89.41937  89.42046
 Alpha virt. eigenvalues --   89.44277  89.46949  89.49084  89.50212  89.51805
 Alpha virt. eigenvalues --   89.53346  89.54582  89.56549  89.57112  89.60236
 Alpha virt. eigenvalues --   89.60863  89.61106  89.61817  89.62309  89.63382
 Alpha virt. eigenvalues --   89.64491  89.66199  89.68757 112.75848 112.78544
 Alpha virt. eigenvalues --  112.81430 112.82578 112.89246 112.90543 121.90174
 Alpha virt. eigenvalues --  121.99742 122.03615 239.32461 257.35530 282.57947
 Alpha virt. eigenvalues --  282.71339 332.20763 332.25825 428.80492 428.86603
 Alpha virt. eigenvalues --  428.97286 590.27034 590.34456 590.37466 773.02767
 Alpha virt. eigenvalues --  839.715141043.730161043.850372068.624632530.08374
 Alpha virt. eigenvalues -- 5495.422365634.628995634.78046********************
 Alpha virt. eigenvalues -- **********
          Condensed to atoms (all electrons):
 Mulliken charges:
               1
     1  Pt  -0.145201
     2  P    1.070025
     3  C   -0.994624
     4  C    0.271721
     5  C    0.521045
     6  C   -0.099113
     7  H    0.086217
     8  C   -0.118748
     9  H    0.119885
    10  C   -0.493965
    11  H    0.138916
    12  H    0.137141
    13  H    0.152418
    14  C   -0.783286
    15  C    0.208332
    16  C    0.609732
    17  C   -0.283166
    18  H    0.098192
    19  C   -0.025871
    20  H    0.063042
    21  C   -0.536039
    22  H    0.145768
    23  H    0.144515
    24  H    0.157010
    25  C   -0.686159
    26  C    0.361638
    27  C    0.200916
    28  C    0.073075
    29  H    0.105205
    30  C   -0.261979
    31  H    0.121252
    32  C   -0.617033
    33  H    0.145052
    34  H    0.143576
    35  H    0.152277
    36  Sn  -0.060230
    37  P    1.546416
    38  C   -0.963443
    39  C    0.419705
    40  C    0.301513
    41  C   -0.072475
    42  H    0.098648
    43  C   -0.178175
    44  H    0.112174
    45  C   -0.539425
    46  H    0.149364
    47  H    0.145847
    48  H    0.153153
    49  C   -0.860179
    50  C    0.265869
    51  C    0.346159
    52  C   -0.069832
    53  H    0.093151
    54  C   -0.007691
    55  H    0.062092
    56  C   -0.527488
    57  H    0.143656
    58  H    0.137228
    59  H    0.148792
    60  C   -0.484638
    61  C    0.054503
    62  C    0.352484
    63  C   -0.117432
    64  H    0.071923
    65  C   -0.104883
    66  H    0.061429
    67  C   -0.533775
    68  H    0.145195
    69  H    0.139818
    70  H    0.147286
    71  Br  -0.456391
    72  Br  -0.324825
    73  C   -0.314489
    74  H    0.097103
    75  H    0.089932
    76  H    0.120997
    77  C   -0.260840
    78  H    0.102856
    79  H    0.108906
    80  H    0.078246
 Sum of Mulliken charges =   0.00000
 Mulliken charges with hydrogens summed into heavy atoms:
               1
     1  Pt  -0.145201
     2  P    1.070025
     3  C   -0.994624
     4  C    0.357937
     5  C    0.640930
     6  C    0.039803
     8  C    0.018393
    10  C   -0.341548
    14  C   -0.783286
    15  C    0.306524
    16  C    0.672774
    17  C   -0.137399
    19  C    0.118644
    21  C   -0.379029
    25  C   -0.686159
    26  C    0.466843
    27  C    0.322168
    28  C    0.218127
    30  C   -0.118402
    32  C   -0.464755
    36  Sn  -0.060230
    37  P    1.546416
    38  C   -0.963443
    39  C    0.518353
    40  C    0.413688
    41  C    0.076888
    43  C   -0.032328
    45  C   -0.386272
    49  C   -0.860179
    50  C    0.359020
    51  C    0.408250
    52  C    0.073824
    54  C    0.129537
    56  C   -0.378696
    60  C   -0.484638
    61  C    0.126426
    62  C    0.413914
    63  C    0.027763
    65  C    0.034935
    67  C   -0.386489
    71  Br  -0.456391
    72  Br  -0.324825
    73  C   -0.006458
    77  C    0.029168
 Electronic spatial extent (au):  <R**2>=          29257.7135
 Charge=              0.0000 electrons
 Dipole moment (field-independent basis, Debye):
    X=             -1.8681    Y=              0.2393    Z=              5.0854  Tot=              5.4229
 Quadrupole moment (field-independent basis, Debye-Ang):
   XX=           -283.0940   YY=           -357.6652   ZZ=           -298.8582
   XY=             11.1268   XZ=             -1.8034   YZ=              7.3010
 Traceless Quadrupole moment (field-independent basis, Debye-Ang):
   XX=             30.1118   YY=            -44.4594   ZZ=             14.3476
   XY=             11.1268   XZ=             -1.8034   YZ=              7.3010
 Octapole moment (field-independent basis, Debye-Ang**2):
  XXX=             -8.0622  YYY=            -20.9336  ZZZ=            -10.2954  XYY=              3.3147
  XXY=            -38.4861  XXZ=            -17.8305  XZZ=             -9.1330  YZZ=             13.8762
  YYZ=             31.5561  XYZ=            -31.8895
 Hexadecapole moment (field-independent basis, Debye-Ang**3):
 XXXX=         -18279.2750 YYYY=         -11018.1429 ZZZZ=          -7438.0776 XXXY=            -10.2453
 XXXZ=           -162.2921 YYYX=           -100.4328 YYYZ=            159.3635 ZZZX=           -331.0923
 ZZZY=             51.0043 XXYY=          -4453.3340 XXZZ=          -4061.5700 YYZZ=          -3043.5156
 XXYZ=           -142.2915 YYXZ=            295.5355 ZZXY=            130.1338
 N-N= 1.332743797549D+04 E-N=-9.861088177019D+04  KE= 2.995165737140D+04
 Calculating spin-rotation constants.
 Leave Link  601 at Fri Nov 29 18:59:27 2019, MaxMem=   939524096 cpu:       920.4
 (Enter /scr/programas/g09/l9999.exe)
 1\1\GINC-NQTCM\SP\RPBEPBE\Gen\C38H36Br2P2Pt1Sn1\NQTCM\29-Nov-2019\0\\#
 PBEPBE/gen scf=(maxcycle=500,conver=3) NMR=GIAO Scrf=(solvent=Dichloro
 methane)\\estrutura 108\\0,1\Pt,0,-0.07148,0.310884,-0.124328\P,0,2.30
 8757,0.639767,-0.042434\C,0,3.496543,-0.631673,0.605978\C,0,4.194845,-
 0.481629,1.81583\C,0,3.745725,-1.768139,-0.184774\C,0,5.117472,-1.4501
 87,2.227372\H,0,4.035511,0.395817,2.443135\C,0,4.666991,-2.732663,0.22
 9614\H,0,3.221196,-1.906108,-1.13219\C,0,5.356006,-2.577916,1.438027\H
 ,0,5.654968,-1.314675,3.169734\H,0,4.844576,-3.610058,-0.397013\H,0,6.
 079913,-3.331491,1.759547\C,0,2.57893,2.084953,1.073735\C,0,3.25382,3.
 249333,0.680273\C,0,2.035895,2.017273,2.370257\C,0,3.384415,4.322353,1
 .568118\H,0,3.666012,3.334792,-0.325859\C,0,2.181874,3.082998,3.259917
 \H,0,1.483488,1.130432,2.687413\C,0,2.854559,4.244073,2.859161\H,0,3.9
 04171,5.225256,1.243235\H,0,1.756564,3.012703,4.264488\H,0,2.959844,5.
 083484,3.55014\C,0,3.11106,1.028046,-1.65977\C,0,4.504999,1.223964,-1.
 721025\C,0,2.359407,1.089488,-2.843101\C,0,5.12578,1.506443,-2.940434\
 H,0,5.11602,1.146997,-0.818521\C,0,2.985292,1.365898,-4.064655\H,0,1.2
 81591,0.936714,-2.805087\C,0,4.364302,1.585324,-4.11363\H,0,6.207344,1
 .661256,-2.974253\H,0,2.392315,1.409959,-4.98001\H,0,4.851779,1.806203
 ,-5.067323\Sn,0,-0.007792,-2.170474,0.806676\P,0,-2.457967,0.245172,0.
 008517\C,0,-3.396364,1.708504,-0.624654\C,0,-3.594522,1.83973,-2.01013
 1\C,0,-3.901091,2.695717,0.233803\C,0,-4.291615,2.932941,-2.524988\H,0
 ,-3.204093,1.085477,-2.695907\C,0,-4.603863,3.789589,-0.285292\H,0,-3.
 756587,2.618829,1.31251\C,0,-4.800283,3.912317,-1.665093\H,0,-4.434301
 ,3.018078,-3.604234\H,0,-4.997315,4.547704,0.394188\H,0,-5.350052,4.76
 6032,-2.067608\C,0,-3.24891,-1.106569,-0.981004\C,0,-4.613014,-1.44322
 6,-0.897825\C,0,-2.462448,-1.732955,-1.96611\C,0,-5.157673,-2.416268,-
 1.738161\H,0,-5.281229,-0.944553,-0.194702\C,0,-3.016937,-2.690389,-2.
 823766\H,0,-1.409467,-1.470455,-2.072186\C,0,-4.36292,-3.044058,-2.704
 402\H,0,-6.216507,-2.671688,-1.646347\H,0,-2.388137,-3.158756,-3.58443
 9\H,0,-4.79662,-3.797732,-3.366927\C,0,-2.929659,0.181422,1.800366\C,0
 ,-4.146005,-0.319145,2.297882\C,0,-2.018606,0.75041,2.711433\C,0,-4.43
 2178,-0.267573,3.66498\H,0,-4.885656,-0.753467,1.629222\C,0,-2.313306,
 0.814145,4.076524\H,0,-1.070026,1.150744,2.345457\C,0,-3.520783,0.3000
 69,4.559001\H,0,-5.381126,-0.670908,4.030053\H,0,-1.591615,1.265216,4.
 763262\H,0,-3.746769,0.341462,5.627445\Br,0,-0.171866,2.795556,-1.0128
 27\Br,0,0.826352,-3.724891,-1.170109\C,0,1.329324,-2.711535,2.44808\H,
 0,2.014154,-3.501278,2.10802\H,0,1.915953,-1.853053,2.798382\H,0,0.699
 202,-3.097533,3.265481\C,0,-1.825778,-3.31375,1.26107\H,0,-2.186627,-3
 .796103,0.343528\H,0,-1.543676,-4.081155,1.999153\H,0,-2.61626,-2.6746
 09,1.677852\\Version=EM64L-G09RevD.01\State=1-A\HF=-30378.1929799\RMSD
 =3.023e-04\Dipole=-0.7349821,0.0941499,2.0007315\Quadrupole=22.387391,
 -33.0544725,10.6670815,8.2724717,-1.3407472,5.4281251\PG=C01 [X(C38H36
 Br2P2Pt1Sn1)]\\@


 SOME THINGS ARE EASY, THEY ARE ONLY HARD TO DO.
            -- A. EINSTEIN TO J. O. HIRSCHFELDER
 THE ONLY TROUBLE WITH A SURE THING IS THE UNCERTAINTY.
     -- FROM A TEABAG (BELONGING TO W.H.?)
 Job cpu time:       1 days 13 hours 52 minutes 35.1 seconds.
 File lengths (MBytes):  RWF=   2248 Int=      0 D2E=      0 Chk=    161 Scr=      1
 Normal termination of Gaussian 09 at Fri Nov 29 18:59:28 2019.
