 Entering Gaussian System, Link 0=g09
 Input=/home/nqtcm/diego/estrutura63.com
 Output=/home/nqtcm/diego/estrutura63.log
 Initial command:
 /scr/programas/g09/l1.exe "/scr/nqtcm/Gau-25958.inp" -scrdir="/scr/nqtcm/"
 Entering Link 1 = /scr/programas/g09/l1.exe PID=     25960.
  
 Copyright (c) 1988,1990,1992,1993,1995,1998,2003,2009,2013,
            Gaussian, Inc.  All Rights Reserved.
  
 This is part of the Gaussian(R) 09 program.  It is based on
 the Gaussian(R) 03 system (copyright 2003, Gaussian, Inc.),
 the Gaussian(R) 98 system (copyright 1998, Gaussian, Inc.),
 the Gaussian(R) 94 system (copyright 1995, Gaussian, Inc.),
 the Gaussian 92(TM) system (copyright 1992, Gaussian, Inc.),
 the Gaussian 90(TM) system (copyright 1990, Gaussian, Inc.),
 the Gaussian 88(TM) system (copyright 1988, Gaussian, Inc.),
 the Gaussian 86(TM) system (copyright 1986, Carnegie Mellon
 University), and the Gaussian 82(TM) system (copyright 1983,
 Carnegie Mellon University). Gaussian is a federally registered
 trademark of Gaussian, Inc.
  
 This software contains proprietary and confidential information,
 including trade secrets, belonging to Gaussian, Inc.
  
 This software is provided under written license and may be
 used, copied, transmitted, or stored only in accord with that
 written license.
  
 The following legend is applicable only to US Government
 contracts under FAR:
  
                    RESTRICTED RIGHTS LEGEND
  
 Use, reproduction and disclosure by the US Government is
 subject to restrictions as set forth in subparagraphs (a)
 and (c) of the Commercial Computer Software - Restricted
 Rights clause in FAR 52.227-19.
  
 Gaussian, Inc.
 340 Quinnipiac St., Bldg. 40, Wallingford CT 06492
  
  
 ---------------------------------------------------------------
 Warning -- This program may not be used in any manner that
 competes with the business of Gaussian, Inc. or will provide
 assistance to any competitor of Gaussian, Inc.  The licensee
 of this program is prohibited from giving any competitor of
 Gaussian, Inc. access to this program.  By using this program,
 the user acknowledges that Gaussian, Inc. is engaged in the
 business of creating and licensing software in the field of
 computational chemistry and represents and warrants to the
 licensee that it is not a competitor of Gaussian, Inc. and that
 it will not use this program in any manner prohibited above.
 ---------------------------------------------------------------
  

 Cite this work as:
 Gaussian 09, Revision D.01,
 M. J. Frisch, G. W. Trucks, H. B. Schlegel, G. E. Scuseria, 
 M. A. Robb, J. R. Cheeseman, G. Scalmani, V. Barone, B. Mennucci, 
 G. A. Petersson, H. Nakatsuji, M. Caricato, X. Li, H. P. Hratchian, 
 A. F. Izmaylov, J. Bloino, G. Zheng, J. L. Sonnenberg, M. Hada, 
 M. Ehara, K. Toyota, R. Fukuda, J. Hasegawa, M. Ishida, T. Nakajima, 
 Y. Honda, O. Kitao, H. Nakai, T. Vreven, J. A. Montgomery, Jr., 
 J. E. Peralta, F. Ogliaro, M. Bearpark, J. J. Heyd, E. Brothers, 
 K. N. Kudin, V. N. Staroverov, T. Keith, R. Kobayashi, J. Normand, 
 K. Raghavachari, A. Rendell, J. C. Burant, S. S. Iyengar, J. Tomasi, 
 M. Cossi, N. Rega, J. M. Millam, M. Klene, J. E. Knox, J. B. Cross, 
 V. Bakken, C. Adamo, J. Jaramillo, R. Gomperts, R. E. Stratmann, 
 O. Yazyev, A. J. Austin, R. Cammi, C. Pomelli, J. W. Ochterski, 
 R. L. Martin, K. Morokuma, V. G. Zakrzewski, G. A. Voth, 
 P. Salvador, J. J. Dannenberg, S. Dapprich, A. D. Daniels, 
 O. Farkas, J. B. Foresman, J. V. Ortiz, J. Cioslowski, 
 and D. J. Fox, Gaussian, Inc., Wallingford CT, 2013.
 
 ******************************************
 Gaussian 09:  EM64L-G09RevD.01 24-Apr-2013
                24-Aug-2019 
 ******************************************
 %mem=7Gb
 %nproc=4
 Will use up to    4 processors via shared memory.
 ----------------------------------------------------------------------
 #PBEPBE/gen scf=(maxcycle=500,conver=4) NMR=GIAO Scrf=(solvent=Dichlor
 omethane)
 ----------------------------------------------------------------------
 1/38=1/1;
 2/12=2,17=6,18=5,40=1/2;
 3/5=7,11=2,16=1,25=1,30=1,70=2201,72=9,74=1009/1,2,8,3;
 4//1;
 5/5=2,6=4,7=500,38=5,53=9/2;
 8/6=1,10=90,11=11/1;
 10/13=100,45=16/2;
 6/7=2,8=2,9=2,10=2,28=1/1;
 99/9=1/99;
 Leave Link    1 at Sat Aug 24 13:33:46 2019, MaxMem=   939524096 cpu:         0.2
 (Enter /scr/programas/g09/l101.exe)
 ------------
 estrutura 63
 ------------
 Symbolic Z-matrix:
 Charge =  0 Multiplicity = 1
 P                     1.98782  -0.58034   0.33223 
 P                    -2.56214   0.62314  -0.54567 
 C                     3.17283   0.77335   0.51044 
 C                     3.67946   0.78771   1.76563 
 C                     3.19847  -0.34012   2.62566 
 C                     2.33452  -1.17753   2.0021 
 C                     4.6532    1.80957   2.27423 
 C                     3.64698  -0.4833    4.04868 
 C                    -2.87303   0.91536  -2.30092 
 C                    -3.80676   0.04815  -2.76194 
 C                    -4.37393  -0.84718  -1.70773 
 C                    -3.84037  -0.65626  -0.47817 
 C                    -4.27002  -0.03186  -4.18618 
 C                    -5.42519  -1.86471  -2.03006 
 H                     3.42556   1.47849  -0.2795 
 H                     1.86636  -2.05616   2.44365 
 H                     4.45076   2.07634   3.32302 
 H                     5.68546   1.41821   2.2333 
 H                     4.61222   2.72621   1.66921 
 H                     4.7457   -0.42528   4.1311 
 H                     3.23929   0.33614   4.66742 
 H                     3.30918  -1.43775   4.4799 
 H                    -2.3407    1.65438  -2.89916 
 H                    -4.11371  -1.2174    0.41479 
 H                    -4.31499  -1.07305  -4.53432 
 H                    -5.28626   0.38029  -4.28688 
 H                    -3.60658   0.52862  -4.85573 
 H                    -6.30372  -1.39558  -2.50346 
 H                    -5.03236  -2.6108   -2.74206 
 Pt                   -0.29794   0.01546  -0.08555 
 Sn                   -1.08001  -2.501     0.35549 
 Cl                    0.54526  -4.16313   1.07686 
 Cl                   -1.91942  -3.67854  -1.58014 
 Cl                   -2.76805  -2.98033   2.02866 
 Sn                    0.51069   2.43925  -0.84179 
 Cl                    1.4528    3.97547   0.76786 
 Cl                   -1.03815   3.98485  -1.90333 
 Cl                    2.20828   2.4203   -2.57585 
 C                    -3.21603   2.07192   0.4363 
 H                    -2.80906   2.97472  -0.0415 
 H                    -4.30424   2.0663    0.25578 
 C                     2.62097  -1.7976   -0.94532 
 H                     2.29065  -2.78046  -0.57924 
 H                     2.06012  -1.58137  -1.86537 
 C                    -2.89331   2.05487   1.91565 
 C                    -3.26459   0.9809    2.74311 
 C                    -2.23194   3.14991   2.49716 
 C                    -2.98197   1.00174   4.11073 
 H                    -3.78355   0.11404   2.32298 
 C                    -1.95618   3.17622   3.86888 
 H                    -1.93261   3.99482   1.87119 
 C                    -2.32918   2.10189   4.68053 
 H                    -3.27487   0.15301   4.73277 
 H                    -1.44751   4.04275   4.30161 
 H                    -2.11457   2.12109   5.75136 
 H                    -5.75394  -2.39658  -1.12693 
 C                     4.10641  -1.75936  -1.19626 
 C                     4.60657  -1.11005  -2.33703 
 C                     5.01562  -2.37073  -0.3137 
 C                     5.98155  -1.07343  -2.59187 
 H                     3.91087  -0.62923  -3.03081 
 C                     6.39109  -2.32297  -0.56344 
 H                     4.64482  -2.88908   0.57511 
 C                     6.87762  -1.67337  -1.70332 
 H                     6.35116  -0.57401  -3.4899 
 H                     7.08677  -2.79904   0.13338 
 H                     7.9506   -1.63527  -1.90044 
 
 NAtoms=     67 NQM=       67 NQMF=       0 NMMI=      0 NMMIF=      0
                NMic=       0 NMicF=      0.
                    Isotopes and Nuclear Properties:
 (Nuclear quadrupole moments (NQMom) in fm**2, nuclear magnetic moments (NMagM)
  in nuclear magnetons)

  Atom         1           2           3           4           5           6           7           8           9          10
 IAtWgt=          31          31          12          12          12          12          12          12          12          12
 AtmWgt=  30.9737634  30.9737634  12.0000000  12.0000000  12.0000000  12.0000000  12.0000000  12.0000000  12.0000000  12.0000000
 NucSpn=           1           1           0           0           0           0           0           0           0           0
 AtZEff=   0.0000000   0.0000000   0.0000000   0.0000000   0.0000000   0.0000000   0.0000000   0.0000000   0.0000000   0.0000000
 NQMom=    0.0000000   0.0000000   0.0000000   0.0000000   0.0000000   0.0000000   0.0000000   0.0000000   0.0000000   0.0000000
 NMagM=    1.1316000   1.1316000   0.0000000   0.0000000   0.0000000   0.0000000   0.0000000   0.0000000   0.0000000   0.0000000
 AtZNuc=  15.0000000  15.0000000   6.0000000   6.0000000   6.0000000   6.0000000   6.0000000   6.0000000   6.0000000   6.0000000

  Atom        11          12          13          14          15          16          17          18          19          20
 IAtWgt=          12          12          12          12           1           1           1           1           1           1
 AtmWgt=  12.0000000  12.0000000  12.0000000  12.0000000   1.0078250   1.0078250   1.0078250   1.0078250   1.0078250   1.0078250
 NucSpn=           0           0           0           0           1           1           1           1           1           1
 AtZEff=   0.0000000   0.0000000   0.0000000   0.0000000   0.0000000   0.0000000   0.0000000   0.0000000   0.0000000   0.0000000
 NQMom=    0.0000000   0.0000000   0.0000000   0.0000000   0.0000000   0.0000000   0.0000000   0.0000000   0.0000000   0.0000000
 NMagM=    0.0000000   0.0000000   0.0000000   0.0000000   2.7928460   2.7928460   2.7928460   2.7928460   2.7928460   2.7928460
 AtZNuc=   6.0000000   6.0000000   6.0000000   6.0000000   1.0000000   1.0000000   1.0000000   1.0000000   1.0000000   1.0000000

  Atom        21          22          23          24          25          26          27          28          29          30
 IAtWgt=           1           1           1           1           1           1           1           1           1         195
 AtmWgt=   1.0078250   1.0078250   1.0078250   1.0078250   1.0078250   1.0078250   1.0078250   1.0078250   1.0078250 194.9648000
 NucSpn=           1           1           1           1           1           1           1           1           1           1
 AtZEff=   0.0000000   0.0000000   0.0000000   0.0000000   0.0000000   0.0000000   0.0000000   0.0000000   0.0000000   0.0000000
 NQMom=    0.0000000   0.0000000   0.0000000   0.0000000   0.0000000   0.0000000   0.0000000   0.0000000   0.0000000   0.0000000
 NMagM=    2.7928460   2.7928460   2.7928460   2.7928460   2.7928460   2.7928460   2.7928460   2.7928460   2.7928460   0.6095000
 AtZNuc=   1.0000000   1.0000000   1.0000000   1.0000000   1.0000000   1.0000000   1.0000000   1.0000000   1.0000000  78.0000000

  Atom        31          32          33          34          35          36          37          38          39          40
 IAtWgt=         118          35          35          35         118          35          35          35          12           1
 AtmWgt= 117.9018000  34.9688527  34.9688527  34.9688527 117.9018000  34.9688527  34.9688527  34.9688527  12.0000000   1.0078250
 NucSpn=           0           3           3           3           0           3           3           3           0           1
 AtZEff=   0.0000000   0.0000000   0.0000000   0.0000000   0.0000000   0.0000000   0.0000000   0.0000000   0.0000000   0.0000000
 NQMom=    0.0000000  -8.1650000  -8.1650000  -8.1650000   0.0000000  -8.1650000  -8.1650000  -8.1650000   0.0000000   0.0000000
 NMagM=    0.0000000   0.8218740   0.8218740   0.8218740   0.0000000   0.8218740   0.8218740   0.8218740   0.0000000   2.7928460
 AtZNuc=  50.0000000  17.0000000  17.0000000  17.0000000  50.0000000  17.0000000  17.0000000  17.0000000   6.0000000   1.0000000

  Atom        41          42          43          44          45          46          47          48          49          50
 IAtWgt=           1          12           1           1          12          12          12          12           1          12
 AtmWgt=   1.0078250  12.0000000   1.0078250   1.0078250  12.0000000  12.0000000  12.0000000  12.0000000   1.0078250  12.0000000
 NucSpn=           1           0           1           1           0           0           0           0           1           0
 AtZEff=   0.0000000   0.0000000   0.0000000   0.0000000   0.0000000   0.0000000   0.0000000   0.0000000   0.0000000   0.0000000
 NQMom=    0.0000000   0.0000000   0.0000000   0.0000000   0.0000000   0.0000000   0.0000000   0.0000000   0.0000000   0.0000000
 NMagM=    2.7928460   0.0000000   2.7928460   2.7928460   0.0000000   0.0000000   0.0000000   0.0000000   2.7928460   0.0000000
 AtZNuc=   1.0000000   6.0000000   1.0000000   1.0000000   6.0000000   6.0000000   6.0000000   6.0000000   1.0000000   6.0000000

  Atom        51          52          53          54          55          56          57          58          59          60
 IAtWgt=           1          12           1           1           1           1          12          12          12          12
 AtmWgt=   1.0078250  12.0000000   1.0078250   1.0078250   1.0078250   1.0078250  12.0000000  12.0000000  12.0000000  12.0000000
 NucSpn=           1           0           1           1           1           1           0           0           0           0
 AtZEff=   0.0000000   0.0000000   0.0000000   0.0000000   0.0000000   0.0000000   0.0000000   0.0000000   0.0000000   0.0000000
 NQMom=    0.0000000   0.0000000   0.0000000   0.0000000   0.0000000   0.0000000   0.0000000   0.0000000   0.0000000   0.0000000
 NMagM=    2.7928460   0.0000000   2.7928460   2.7928460   2.7928460   2.7928460   0.0000000   0.0000000   0.0000000   0.0000000
 AtZNuc=   1.0000000   6.0000000   1.0000000   1.0000000   1.0000000   1.0000000   6.0000000   6.0000000   6.0000000   6.0000000

  Atom        61          62          63          64          65          66          67
 IAtWgt=           1          12           1          12           1           1           1
 AtmWgt=   1.0078250  12.0000000   1.0078250  12.0000000   1.0078250   1.0078250   1.0078250
 NucSpn=           1           0           1           0           1           1           1
 AtZEff=   0.0000000   0.0000000   0.0000000   0.0000000   0.0000000   0.0000000   0.0000000
 NQMom=    0.0000000   0.0000000   0.0000000   0.0000000   0.0000000   0.0000000   0.0000000
 NMagM=    2.7928460   0.0000000   2.7928460   0.0000000   2.7928460   2.7928460   2.7928460
 AtZNuc=   1.0000000   6.0000000   1.0000000   6.0000000   1.0000000   1.0000000   1.0000000
 Leave Link  101 at Sat Aug 24 13:33:46 2019, MaxMem=   939524096 cpu:         0.6
 (Enter /scr/programas/g09/l202.exe)
 Stoichiometry    C26H30Cl6P2PtSn2
 Framework group  C1[X(C26H30Cl6P2PtSn2)]
 Deg. of freedom   195
 Full point group                 C1      NOp   1
 Largest Abelian subgroup         C1      NOp   1
 Largest concise Abelian subgroup C1      NOp   1
                         Standard orientation:                         
 ---------------------------------------------------------------------
 Center     Atomic      Atomic             Coordinates (Angstroms)
 Number     Number       Type             X           Y           Z
 ---------------------------------------------------------------------
      1         15           0        1.987818   -0.580344    0.332232
      2         15           0       -2.562143    0.623136   -0.545668
      3          6           0        3.172827    0.773348    0.510439
      4          6           0        3.679464    0.787705    1.765626
      5          6           0        3.198468   -0.340115    2.625657
      6          6           0        2.334517   -1.177534    2.002096
      7          6           0        4.653201    1.809565    2.274229
      8          6           0        3.646976   -0.483302    4.048682
      9          6           0       -2.873030    0.915357   -2.300923
     10          6           0       -3.806755    0.048153   -2.761943
     11          6           0       -4.373928   -0.847181   -1.707727
     12          6           0       -3.840371   -0.656258   -0.478168
     13          6           0       -4.270017   -0.031856   -4.186182
     14          6           0       -5.425191   -1.864707   -2.030058
     15          1           0        3.425564    1.478493   -0.279500
     16          1           0        1.866364   -2.056159    2.443654
     17          1           0        4.450756    2.076344    3.323023
     18          1           0        5.685455    1.418211    2.233303
     19          1           0        4.612218    2.726207    1.669211
     20          1           0        4.745698   -0.425284    4.131098
     21          1           0        3.239292    0.336140    4.667419
     22          1           0        3.309181   -1.437749    4.479901
     23          1           0       -2.340698    1.654376   -2.899164
     24          1           0       -4.113708   -1.217397    0.414791
     25          1           0       -4.314990   -1.073052   -4.534320
     26          1           0       -5.286255    0.380294   -4.286877
     27          1           0       -3.606578    0.528620   -4.855731
     28          1           0       -6.303718   -1.395574   -2.503455
     29          1           0       -5.032362   -2.610800   -2.742059
     30         78           0       -0.297935    0.015461   -0.085549
     31         50           0       -1.080010   -2.500998    0.355488
     32         17           0        0.545262   -4.163131    1.076862
     33         17           0       -1.919424   -3.678539   -1.580138
     34         17           0       -2.768050   -2.980327    2.028659
     35         50           0        0.510693    2.439248   -0.841790
     36         17           0        1.452795    3.975471    0.767861
     37         17           0       -1.038153    3.984850   -1.903328
     38         17           0        2.208280    2.420296   -2.575845
     39          6           0       -3.216032    2.071916    0.436296
     40          1           0       -2.809056    2.974720   -0.041496
     41          1           0       -4.304243    2.066302    0.255779
     42          6           0        2.620974   -1.797601   -0.945321
     43          1           0        2.290652   -2.780455   -0.579243
     44          1           0        2.060119   -1.581368   -1.865365
     45          6           0       -2.893306    2.054873    1.915653
     46          6           0       -3.264594    0.980902    2.743114
     47          6           0       -2.231937    3.149913    2.497156
     48          6           0       -2.981974    1.001742    4.110725
     49          1           0       -3.783546    0.114043    2.322980
     50          6           0       -1.956182    3.176219    3.868884
     51          1           0       -1.932610    3.994821    1.871186
     52          6           0       -2.329181    2.101886    4.680532
     53          1           0       -3.274868    0.153013    4.732766
     54          1           0       -1.447513    4.042748    4.301607
     55          1           0       -2.114566    2.121088    5.751362
     56          1           0       -5.753941   -2.396577   -1.126927
     57          6           0        4.106410   -1.759360   -1.196264
     58          6           0        4.606570   -1.110050   -2.337028
     59          6           0        5.015619   -2.370734   -0.313698
     60          6           0        5.981545   -1.073429   -2.591865
     61          1           0        3.910870   -0.629229   -3.030807
     62          6           0        6.391091   -2.322968   -0.563438
     63          1           0        4.644823   -2.889078    0.575109
     64          6           0        6.877618   -1.673365   -1.703316
     65          1           0        6.351159   -0.574008   -3.489897
     66          1           0        7.086772   -2.799041    0.133376
     67          1           0        7.950599   -1.635273   -1.900444
 ---------------------------------------------------------------------
 Rotational constants (GHZ):      0.0623465      0.0511435      0.0420913
 Leave Link  202 at Sat Aug 24 13:33:46 2019, MaxMem=   939524096 cpu:         0.0
 (Enter /scr/programas/g09/l301.exe)
 General basis read from cards:  (5D, 7F)
 Centers:      15     16     17     18     19     20     21     22     23     24
 Centers:      25     26     27     28     29     40     41     43     44     49
 Centers:      51     53     54     55     56     61     63     65     66     67
 S 5 1.00
     Exponent=  2.8295215633D+02 Coefficients=  4.3000000000D-04
     Exponent=  8.7062201949D+01 Coefficients=  5.1000000000D-04
     Exponent=  2.6788369830D+01 Coefficients=  6.1600000000D-03
     Exponent=  8.2425753324D+00 Coefficients=  1.3030000000D-02
     Exponent=  2.5361770254D+00 Coefficients=  9.9490000000D-02
 S 1 1.00
     Exponent=  7.8036216165D-01 Coefficients=  1.0000000000D+00
 S 1 1.00
     Exponent=  2.4011143435D-01 Coefficients=  1.0000000000D+00
 P 1 1.00
     Exponent=  8.8150000000D-01 Coefficients=  1.0000000000D+00
 P 1 1.00
     Exponent=  1.7989200000D-01 Coefficients=  1.0000000000D+00
 ****
 Centers:       3      4      5      6      7      8      9     10     11     12
 Centers:      13     14     39     42     45     46     47     48     50     52
 Centers:      57     58     59     60     62     64
 S 6 1.00
     Exponent=  8.8461235339D+03 Coefficients=  5.3000000000D-04
     Exponent=  2.9487078446D+03 Coefficients=  7.7000000000D-04
     Exponent=  9.8290261488D+02 Coefficients=  4.0500000000D-03
     Exponent=  3.2763420496D+02 Coefficients=  1.4030000000D-02
     Exponent=  1.0921140165D+02 Coefficients=  5.3450000000D-02
     Exponent=  3.6403800551D+01 Coefficients=  1.7027000000D-01
 S 1 1.00
     Exponent=  1.2134600184D+01 Coefficients=  1.0000000000D+00
 S 1 1.00
     Exponent=  4.0448667279D+00 Coefficients=  1.0000000000D+00
 S 1 1.00
     Exponent=  1.3482889093D+00 Coefficients=  1.0000000000D+00
 S 1 1.00
     Exponent=  4.4942963643D-01 Coefficients=  1.0000000000D+00
 S 1 1.00
     Exponent=  1.4980987881D-01 Coefficients=  1.0000000000D+00
 P 4 1.00
     Exponent=  3.7294093393D+01 Coefficients=  3.9600000000D-03
     Exponent=  1.1475105659D+01 Coefficients=  1.8890000000D-02
     Exponent=  3.5308017414D+00 Coefficients=  9.4610000000D-02
     Exponent=  1.0864005358D+00 Coefficients=  3.1889000000D-01
 P 1 1.00
     Exponent=  3.3427708794D-01 Coefficients=  1.0000000000D+00
 P 1 1.00
     Exponent=  1.0285448860D-01 Coefficients=  1.0000000000D+00
 D 1 1.00
     Exponent=  4.7750000000D-01 Coefficients=  1.0000000000D+00
 D 1 1.00
     Exponent=  1.1998000000D-01 Coefficients=  1.0000000000D+00
 ****
 Centers:       1      2
 S 7 1.00
     Exponent=  5.9538004301D+04 Coefficients=  9.5000000000D-04
     Exponent=  2.1650183382D+04 Coefficients=  6.1000000000D-04
     Exponent=  7.8727939572D+03 Coefficients=  3.7500000000D-03
     Exponent=  2.8628341663D+03 Coefficients=  9.6300000000D-03
     Exponent=  1.0410306059D+03 Coefficients=  3.2430000000D-02
     Exponent=  3.7855658397D+02 Coefficients=  9.9500000000D-02
     Exponent=  1.3765693962D+02 Coefficients=  2.6570000000D-01
 S 1 1.00
     Exponent=  5.0057068954D+01 Coefficients=  1.0000000000D+00
 S 1 1.00
     Exponent=  1.8202570529D+01 Coefficients=  1.0000000000D+00
 S 1 1.00
     Exponent=  6.6191165560D+00 Coefficients=  1.0000000000D+00
 S 1 1.00
     Exponent=  2.4069514749D+00 Coefficients=  1.0000000000D+00
 S 1 1.00
     Exponent=  8.7525508178D-01 Coefficients=  1.0000000000D+00
 S 1 1.00
     Exponent=  3.1827457519D-01 Coefficients=  1.0000000000D+00
 S 1 1.00
     Exponent=  1.1573620916D-01 Coefficients=  1.0000000000D+00
 S 1 1.00
     Exponent=  4.2085894240D-02 Coefficients=  1.0000000000D+00
 P 5 1.00
     Exponent=  4.8799672315D+02 Coefficients=  2.1600000000D-03
     Exponent=  1.6266557438D+02 Coefficients=  9.7900000000D-03
     Exponent=  5.4221858128D+01 Coefficients=  5.4850000000D-02
     Exponent=  1.8073952709D+01 Coefficients=  2.1770000000D-01
     Exponent=  6.0246509031D+00 Coefficients=  4.8978000000D-01
 P 1 1.00
     Exponent=  2.0082169677D+00 Coefficients=  1.0000000000D+00
 P 1 1.00
     Exponent=  6.6940565590D-01 Coefficients=  1.0000000000D+00
 P 1 1.00
     Exponent=  2.2313521863D-01 Coefficients=  1.0000000000D+00
 P 1 1.00
     Exponent=  7.4378406211D-02 Coefficients=  1.0000000000D+00
 P 1 1.00
     Exponent=  2.4792802070D-02 Coefficients=  1.0000000000D+00
 D 1 1.00
     Exponent=  3.5395000000D-01 Coefficients=  1.0000000000D+00
 D 1 1.00
     Exponent=  8.9098000000D-02 Coefficients=  1.0000000000D+00
 ****
 Centers:      32     33     34     36     37     38
 S 7 1.00
     Exponent=  7.7142817164D+04 Coefficients=  1.0600000000D-03
     Exponent=  2.8051933514D+04 Coefficients=  6.4000000000D-04
     Exponent=  1.0200703096D+04 Coefficients=  3.9600000000D-03
     Exponent=  3.7093465804D+03 Coefficients=  9.8300000000D-03
     Exponent=  1.3488533020D+03 Coefficients=  3.2690000000D-02
     Exponent=  4.9049210981D+02 Coefficients=  9.9520000000D-02
     Exponent=  1.7836076720D+02 Coefficients=  2.6555000000D-01
 S 1 1.00
     Exponent=  6.4858460801D+01 Coefficients=  1.0000000000D+00
 S 1 1.00
     Exponent=  2.3584894837D+01 Coefficients=  1.0000000000D+00
 S 1 1.00
     Exponent=  8.5763253951D+00 Coefficients=  1.0000000000D+00
 S 1 1.00
     Exponent=  3.1186637801D+00 Coefficients=  1.0000000000D+00
 S 1 1.00
     Exponent=  1.1340595564D+00 Coefficients=  1.0000000000D+00
 S 1 1.00
     Exponent=  4.1238529323D-01 Coefficients=  1.0000000000D+00
 S 1 1.00
     Exponent=  1.4995828845D-01 Coefficients=  1.0000000000D+00
 S 1 1.00
     Exponent=  5.4530286708D-02 Coefficients=  1.0000000000D+00
 P 5 1.00
     Exponent=  6.9498536057D+02 Coefficients=  2.0000000000D-03
     Exponent=  2.3166178686D+02 Coefficients=  8.9500000000D-03
     Exponent=  7.7220595619D+01 Coefficients=  5.1130000000D-02
     Exponent=  2.5740198540D+01 Coefficients=  2.1011000000D-01
     Exponent=  8.5800661799D+00 Coefficients=  4.9738000000D-01
 P 1 1.00
     Exponent=  2.8600220600D+00 Coefficients=  1.0000000000D+00
 P 1 1.00
     Exponent=  9.5334068665D-01 Coefficients=  1.0000000000D+00
 P 1 1.00
     Exponent=  3.1778022888D-01 Coefficients=  1.0000000000D+00
 P 1 1.00
     Exponent=  1.0592674296D-01 Coefficients=  1.0000000000D+00
 P 1 1.00
     Exponent=  3.5308914320D-02 Coefficients=  1.0000000000D+00
 D 1 1.00
     Exponent=  5.5696000000D-01 Coefficients=  1.0000000000D+00
 D 1 1.00
     Exponent=  1.5619100000D-01 Coefficients=  1.0000000000D+00
 ****
 Centers:      31     35
 S 8 1.00
     Exponent=  7.5448214551D+05 Coefficients=  4.4300000000D-03
     Exponent=  3.3532539800D+05 Coefficients=  1.9800000000D-03
     Exponent=  1.4903351022D+05 Coefficients=  9.0500000000D-03
     Exponent=  6.6237115655D+04 Coefficients=  4.8700000000D-03
     Exponent=  2.9438718069D+04 Coefficients=  2.0770000000D-02
     Exponent=  1.3083874697D+04 Coefficients=  3.2900000000D-02
     Exponent=  5.8150554210D+03 Coefficients=  7.7010000000D-02
     Exponent=  2.5844690760D+03 Coefficients=  1.5160000000D-01
 S 1 1.00
     Exponent=  1.1486529227D+03 Coefficients=  1.0000000000D+00
 S 1 1.00
     Exponent=  5.1051241008D+02 Coefficients=  1.0000000000D+00
 S 1 1.00
     Exponent=  2.2689440448D+02 Coefficients=  1.0000000000D+00
 S 1 1.00
     Exponent=  1.0084195755D+02 Coefficients=  1.0000000000D+00
 S 1 1.00
     Exponent=  4.4818647798D+01 Coefficients=  1.0000000000D+00
 S 1 1.00
     Exponent=  1.9919399021D+01 Coefficients=  1.0000000000D+00
 S 1 1.00
     Exponent=  8.8530662317D+00 Coefficients=  1.0000000000D+00
 S 1 1.00
     Exponent=  3.9346961030D+00 Coefficients=  1.0000000000D+00
 S 1 1.00
     Exponent=  1.7487538235D+00 Coefficients=  1.0000000000D+00
 S 1 1.00
     Exponent=  7.7722392158D-01 Coefficients=  1.0000000000D+00
 S 1 1.00
     Exponent=  3.4543285403D-01 Coefficients=  1.0000000000D+00
 S 1 1.00
     Exponent=  1.5352571290D-01 Coefficients=  1.0000000000D+00
 S 1 1.00
     Exponent=  6.8233650180D-02 Coefficients=  1.0000000000D+00
 S 1 1.00
     Exponent=  1.3478251887D-02 Coefficients=  1.0000000000D+00
 P 5 1.00
     Exponent=  1.0090658304D+04 Coefficients=  2.7500000000D-03
     Exponent=  4.0362633217D+03 Coefficients=  4.1800000000D-03
     Exponent=  1.6145053287D+03 Coefficients=  2.0890000000D-02
     Exponent=  6.4580213147D+02 Coefficients=  7.1370000000D-02
     Exponent=  2.5832085259D+02 Coefficients=  2.2613000000D-01
 P 1 1.00
     Exponent=  1.0332834104D+02 Coefficients=  1.0000000000D+00
 P 1 1.00
     Exponent=  4.1331336414D+01 Coefficients=  1.0000000000D+00
 P 1 1.00
     Exponent=  1.6532534566D+01 Coefficients=  1.0000000000D+00
 P 1 1.00
     Exponent=  6.6130138263D+00 Coefficients=  1.0000000000D+00
 P 1 1.00
     Exponent=  2.6452055305D+00 Coefficients=  1.0000000000D+00
 P 1 1.00
     Exponent=  1.0580822122D+00 Coefficients=  1.0000000000D+00
 P 1 1.00
     Exponent=  4.2323288488D-01 Coefficients=  1.0000000000D+00
 P 1 1.00
     Exponent=  1.6929315395D-01 Coefficients=  1.0000000000D+00
 P 1 1.00
     Exponent=  6.7717261581D-02 Coefficients=  1.0000000000D+00
 P 1 1.00
     Exponent=  2.7086904632D-02 Coefficients=  1.0000000000D+00
 P 1 1.00
     Exponent=  1.0834761853D-02 Coefficients=  1.0000000000D+00
 D 4 1.00
     Exponent=  5.5430250651D+02 Coefficients=  4.3700000000D-03
     Exponent=  2.0156454782D+02 Coefficients=  2.5110000000D-02
     Exponent=  7.3296199207D+01 Coefficients=  1.3316000000D-01
     Exponent=  2.6653163348D+01 Coefficients=  3.8900000000D-01
 D 1 1.00
     Exponent=  9.6920593993D+00 Coefficients=  1.0000000000D+00
 D 1 1.00
     Exponent=  3.5243852361D+00 Coefficients=  1.0000000000D+00
 D 1 1.00
     Exponent=  1.2815946313D+00 Coefficients=  1.0000000000D+00
 D 1 1.00
     Exponent=  4.6603441139D-01 Coefficients=  1.0000000000D+00
 D 1 1.00
     Exponent=  1.6946705869D-01 Coefficients=  1.0000000000D+00
 F 1 1.00
     Exponent=  1.3140000000D+00 Coefficients=  1.0000000000D+00
 F 1 1.00
     Exponent=  1.9993000000D-01 Coefficients=  1.0000000000D+00
 ****
 Centers:      30
 S 9 1.00
     Exponent=  2.1644816090D+06 Coefficients=  1.2320000000D-02
     Exponent=  1.0822408045D+06 Coefficients=  1.2970000000D-02
     Exponent=  5.4112040224D+05 Coefficients=  2.6370000000D-02
     Exponent=  2.7056020112D+05 Coefficients=  9.0400000000D-03
     Exponent=  1.3528010056D+05 Coefficients=  3.4980000000D-02
     Exponent=  6.7640050280D+04 Coefficients=  1.2220000000D-02
     Exponent=  3.3820025140D+04 Coefficients=  6.0520000000D-02
     Exponent=  1.6910012570D+04 Coefficients=  6.4930000000D-02
     Exponent=  8.4550062850D+03 Coefficients=  1.3819000000D-01
 S 1 1.00
     Exponent=  4.2275031425D+03 Coefficients=  1.0000000000D+00
 S 1 1.00
     Exponent=  2.1137515713D+03 Coefficients=  1.0000000000D+00
 S 1 1.00
     Exponent=  1.0568757856D+03 Coefficients=  1.0000000000D+00
 S 1 1.00
     Exponent=  5.2843789281D+02 Coefficients=  1.0000000000D+00
 S 1 1.00
     Exponent=  2.6421894641D+02 Coefficients=  1.0000000000D+00
 S 1 1.00
     Exponent=  1.3210947320D+02 Coefficients=  1.0000000000D+00
 S 1 1.00
     Exponent=  6.6054736602D+01 Coefficients=  1.0000000000D+00
 S 1 1.00
     Exponent=  3.3027368301D+01 Coefficients=  1.0000000000D+00
 S 1 1.00
     Exponent=  1.6513684150D+01 Coefficients=  1.0000000000D+00
 S 1 1.00
     Exponent=  8.2568420752D+00 Coefficients=  1.0000000000D+00
 S 1 1.00
     Exponent=  4.1284210376D+00 Coefficients=  1.0000000000D+00
 S 1 1.00
     Exponent=  2.0642105188D+00 Coefficients=  1.0000000000D+00
 S 1 1.00
     Exponent=  1.0321052594D+00 Coefficients=  1.0000000000D+00
 S 1 1.00
     Exponent=  5.1605262970D-01 Coefficients=  1.0000000000D+00
 S 1 1.00
     Exponent=  2.5802631485D-01 Coefficients=  1.0000000000D+00
 S 1 1.00
     Exponent=  1.2901315743D-01 Coefficients=  1.0000000000D+00
 S 1 1.00
     Exponent=  6.4506578713D-02 Coefficients=  1.0000000000D+00
 P 7 1.00
     Exponent=  3.2357915258D+04 Coefficients=  5.0200000000D-03
     Exponent=  1.4381295670D+04 Coefficients=  2.0200000000D-03
     Exponent=  6.3916869645D+03 Coefficients=  1.8070000000D-02
     Exponent=  2.8407497620D+03 Coefficients=  3.6620000000D-02
     Exponent=  1.2625554498D+03 Coefficients=  1.1172000000D-01
     Exponent=  5.6113575545D+02 Coefficients=  2.5586000000D-01
     Exponent=  2.4939366909D+02 Coefficients=  4.2608000000D-01
 P 1 1.00
     Exponent=  1.1084163071D+02 Coefficients=  1.0000000000D+00
 P 1 1.00
     Exponent=  4.9262946981D+01 Coefficients=  1.0000000000D+00
 P 1 1.00
     Exponent=  2.1894643103D+01 Coefficients=  1.0000000000D+00
 P 1 1.00
     Exponent=  9.7309524900D+00 Coefficients=  1.0000000000D+00
 P 1 1.00
     Exponent=  4.3248677733D+00 Coefficients=  1.0000000000D+00
 P 1 1.00
     Exponent=  1.9221634548D+00 Coefficients=  1.0000000000D+00
 P 1 1.00
     Exponent=  8.5429486881D-01 Coefficients=  1.0000000000D+00
 P 1 1.00
     Exponent=  3.7968660836D-01 Coefficients=  1.0000000000D+00
 P 1 1.00
     Exponent=  1.6874960372D-01 Coefficients=  1.0000000000D+00
 P 1 1.00
     Exponent=  7.4999823874D-02 Coefficients=  1.0000000000D+00
 P 1 1.00
     Exponent=  3.3333255055D-02 Coefficients=  1.0000000000D+00
 D 5 1.00
     Exponent=  1.9119003508D+03 Coefficients=  4.3300000000D-03
     Exponent=  7.6476014031D+02 Coefficients=  1.7780000000D-02
     Exponent=  3.0590405613D+02 Coefficients=  8.9710000000D-02
     Exponent=  1.2236162245D+02 Coefficients=  3.1123000000D-01
     Exponent=  4.8944648980D+01 Coefficients=  5.3206000000D-01
 D 1 1.00
     Exponent=  1.9577859592D+01 Coefficients=  1.0000000000D+00
 D 1 1.00
     Exponent=  7.8311438368D+00 Coefficients=  1.0000000000D+00
 D 1 1.00
     Exponent=  3.1324575347D+00 Coefficients=  1.0000000000D+00
 D 1 1.00
     Exponent=  1.2529830139D+00 Coefficients=  1.0000000000D+00
 D 1 1.00
     Exponent=  5.0119320556D-01 Coefficients=  1.0000000000D+00
 D 1 1.00
     Exponent=  2.0047728222D-01 Coefficients=  1.0000000000D+00
 D 1 1.00
     Exponent=  8.0190912889D-02 Coefficients=  1.0000000000D+00
 D 1 1.00
     Exponent=  3.2076365156D-02 Coefficients=  1.0000000000D+00
 F 4 1.00
     Exponent=  8.2289680979D+01 Coefficients=  6.1870000000D-02
     Exponent=  2.9923520356D+01 Coefficients=  2.4823000000D-01
     Exponent=  1.0881280130D+01 Coefficients=  4.9956000000D-01
     Exponent=  3.9568291380D+00 Coefficients=  4.0380000000D-01
 F 1 1.00
     Exponent=  1.4388469593D+00 Coefficients=  1.0000000000D+00
 F 1 1.00
     Exponent=  5.2321707610D-01 Coefficients=  1.0000000000D+00
 G 1 1.00
     Exponent=  2.6700000000D+00 Coefficients=  1.0000000000D+00
 G 1 1.00
     Exponent=  9.0960000000D-01 Coefficients=  1.0000000000D+00
 ****
 Ernie: Thresh=  0.10000D-02 Tol=  0.10000D-05 Strict=F.
 There are  1666 symmetry adapted cartesian basis functions of A   symmetry.
 There are  1544 symmetry adapted basis functions of A   symmetry.
  1544 basis functions,  2448 primitive gaussians,  1666 cartesian basis functions
   248 alpha electrons      248 beta electrons
       nuclear repulsion energy     13637.0144867211 Hartrees.
 IExCor= 1009 DFT=T Ex=PBE Corr=PBE ExCW=0 ScaHFX=  0.000000
 ScaDFX=  1.000000  1.000000  1.000000  1.000000 ScalE2=  1.000000  1.000000
 IRadAn=      0 IRanWt=     -1 IRanGd=            0 ICorTp=0 IEmpDi=  4
 NAtoms=   67 NActive=   67 NUniq=   67 SFac= 1.00D+00 NAtFMM=   60 NAOKFM=T Big=T
 Integral buffers will be    131072 words long.
 Raffenetti 2 integral format.
 Two-electron integral symmetry is turned on.
 ------------------------------------------------------------------------------
 Polarizable Continuum Model (PCM)
 =================================
 Model                : PCM (using non-symmetric T matrix).
 Atomic radii         : UFF (Universal Force Field).
 Polarization charges : Total charges.
 Charge compensation  : None.
 Solution method      : On-the-fly selection.
 Cavity type          : Scaled VdW (van der Waals Surface) (Alpha=1.100).
 Cavity algorithm     : GePol (No added spheres)
                        Default sphere list used, NSphG=   67.
                        Lebedev-Laikov grids with approx.  5.0 points / Ang**2.
                        Smoothing algorithm: Karplus/York (Gamma=1.0000).
                        Polarization charges: spherical gaussians, with
                                              point-specific exponents (IZeta= 3).
                        Self-potential: point-specific (ISelfS= 7).
                        Self-field    : sphere-specific E.n sum rule (ISelfD= 2).
 Solvent              : Dichloromethane, Eps=   8.930000 Eps(inf)=   2.028346
 ------------------------------------------------------------------------------
 GePol: Number of generator spheres                  =      67
 GePol: Total number of spheres                      =      67
 GePol: Number of exposed spheres                    =      67 (100.00%)
 GePol: Number of points                             =    5375
 GePol: Average weight of points                     =       0.14
 GePol: Minimum weight of points                     =   0.35D-11
 GePol: Maximum weight of points                     =    0.21838
 GePol: Number of points with low weight             =     365
 GePol: Fraction of low-weight points (<1% of avg)   =       6.79%
 GePol: Cavity surface area                          =    738.763 Ang**2
 GePol: Cavity volume                                =    878.419 Ang**3
 Leave Link  301 at Sat Aug 24 13:33:46 2019, MaxMem=   939524096 cpu:         0.9
 (Enter /scr/programas/g09/l302.exe)
 NPDir=0 NMtPBC=     1 NCelOv=     1 NCel=       1 NClECP=     1 NCelD=      1
         NCelK=      1 NCelE2=     1 NClLst=     1 CellRange=     0.0.
 One-electron integrals computed using PRISM.
 NBasis=  1544 RedAO= T EigKep=  2.14D-06  NBF=  1544
 NBsUse=  1544 1.00D-06 EigRej= -1.00D+00 NBFU=  1544
 Precomputing XC quadrature grid using
 IXCGrd= 4 IRadAn=           0 IRanWt=          -1 IRanGd=           0 AccXCQ= 0.00D+00.
 Defaulting to unpruned grid for atomic number  50.
 Defaulting to unpruned grid for atomic number  78.
 Generated NRdTot=       0 NPtTot=           0 NUsed=           0 NTot=          32
 NSgBfM=  1426  1430  1434  1436  1438 MxSgAt=    67 MxSgA2=    67.
 Leave Link  302 at Sat Aug 24 13:34:00 2019, MaxMem=   939524096 cpu:        54.6
 (Enter /scr/programas/g09/l308.exe)
 Leave Link  308 at Sat Aug 24 13:34:01 2019, MaxMem=   939524096 cpu:         4.3
 (Enter /scr/programas/g09/l303.exe)
 DipDrv:  MaxL=1.
 Leave Link  303 at Sat Aug 24 13:34:02 2019, MaxMem=   939524096 cpu:         2.6
 (Enter /scr/programas/g09/l401.exe)
 ExpMin= 1.08D-02 ExpMax= 2.16D+06 ExpMxC= 2.16D+06 IAcc=4 IRadAn=    199590 AccDes= 0.00D+00
 Harris functional with IExCor= 1009 and IRadAn=  199590 diagonalized for initial guess.
 HarFok:  IExCor= 1009 AccDes= 0.00D+00 IRadAn=    199590 IDoV= 1 UseB2=F ITyADJ=14
 ICtDFT=  3500011 ScaDFX=  1.000000  1.000000  1.000000  1.000000
 FoFCou: FMM=F IPFlag=           0 FMFlag=      100000 FMFlg1=        2001
         NFxFlg=           0 DoJE=T BraDBF=F KetDBF=T FulRan=T
         wScrn=  0.000000 ICntrl=     500 IOpCl=  0 I1Cent=   200000004 NGrid=           0
         NMat0=    1 NMatS0=      1 NMatT0=    0 NMatD0=    1 NMtDS0=    0 NMtDT0=    0
 Petite list used in FoFCou.
 Harris En= -33536.3345648018    
 JPrj=0 DoOrth=F DoCkMO=F.
 Leave Link  401 at Sat Aug 24 13:41:11 2019, MaxMem=   939524096 cpu:      1707.5
 (Enter /scr/programas/g09/l502.exe)
 Closed shell SCF:
 Using DIIS extrapolation, IDIIS=  1040.
 Integral symmetry usage will be decided dynamically.
 IVT=     8603050 IEndB=     8603050 NGot=   939524096 MDV=   933949269
 LenX=   933949269 LenY=   931172047
 Requested convergence on RMS density matrix=1.00D-04 within 500 cycles.
 Requested convergence on MAX density matrix=1.00D-02.
 Requested convergence on             energy=1.00D-02.
 No special actions if energy rises.
 Fock matrices will be formed incrementally for  20 cycles.

 Cycle   1  Pass 1  IDiag  1:
 FoFJK:  IHMeth= 1 ICntrl=     500 DoSepK=F KAlg= 0 I1Cent=   0 FoldK=F
 IRaf= 630000000 NMat=   1 IRICut=       1 DoRegI=T DoRafI=F ISym2E= 0.
 FoFCou: FMM=T IPFlag=           0 FMFlag=      100000 FMFlg1=        2001
         NFxFlg=           0 DoJE=T BraDBF=F KetDBF=F FulRan=T
         wScrn=  0.000000 ICntrl=     500 IOpCl=  0 I1Cent=           0 NGrid=           0
         NMat0=    1 NMatS0=      1 NMatT0=    0 NMatD0=    1 NMtDS0=    0 NMtDT0=    0
 Symmetry not used in FoFCou.
 FMM levels:  10  Number of levels for PrismC:   9
 Defaulting to unpruned grid for atomic number  78.
 Defaulting to unpruned grid for atomic number  78.
 Defaulting to unpruned grid for atomic number  78.
 Defaulting to unpruned grid for atomic number  78.
 Inv3:  Mode=1 IEnd=    86671875.
 Iteration    1 A*A^-1 deviation from unit magnitude is 1.11D-14 for   4803.
 Iteration    1 A*A^-1 deviation from orthogonality  is 1.09D-14 for   3923   2105.
 Iteration    1 A^-1*A deviation from unit magnitude is 1.15D-14 for   4487.
 Iteration    1 A^-1*A deviation from orthogonality  is 2.19D-09 for   3881   3853.
 Iteration    2 A*A^-1 deviation from unit magnitude is 1.02D-14 for   2080.
 Iteration    2 A*A^-1 deviation from orthogonality  is 1.33D-14 for   2124    114.
 Iteration    2 A^-1*A deviation from unit magnitude is 2.22D-15 for   4040.
 Iteration    2 A^-1*A deviation from orthogonality  is 9.99D-16 for   3664   1234.
 E= -33514.9362093363    
 DIIS: error= 2.42D-01 at cycle   1 NSaved=   1.
 NSaved= 1 IEnMin= 1 EnMin= -33514.9362093363     IErMin= 1 ErrMin= 2.42D-01
 ErrMax= 2.42D-01  0.00D+00 EMaxC= 1.00D-01 BMatC= 3.56D+02 BMatP= 3.56D+02
 IDIUse=3 WtCom= 0.00D+00 WtEn= 1.00D+00
 Coeff-Com:  0.100D+01
 Coeff-En:   0.100D+01
 Coeff:      0.100D+01
 Gap=     0.557 Goal=   None    Shift=    0.000
 GapD=    0.557 DampG=2.000 DampE=0.125 DampFc=0.2500 IDamp=-1.
 Damping current iteration by 2.50D-01
 RMSDP=1.46D-02 MaxDP=2.73D+00              OVMax= 7.50D-01

 Cycle   2  Pass 1  IDiag  1:
 RMSU=  3.63D-03    CP:  1.04D+00
 E= -33516.3198578559     Delta-E=       -1.383648519528 Rises=F Damp=T
 DIIS: error= 1.62D-01 at cycle   2 NSaved=   2.
 NSaved= 2 IEnMin= 2 EnMin= -33516.3198578559     IErMin= 2 ErrMin= 1.62D-01
 ErrMax= 1.62D-01  0.00D+00 EMaxC= 1.00D-01 BMatC= 1.71D+02 BMatP= 3.56D+02
 IDIUse=3 WtCom= 0.00D+00 WtEn= 1.00D+00
 Coeff-Com: -0.192D+01 0.292D+01
 Coeff-En:   0.290D+00 0.710D+00
 Coeff:      0.290D+00 0.710D+00
 Gap=     0.055 Goal=   None    Shift=    0.000
 RMSDP=3.80D-03 MaxDP=4.66D-01 DE=-1.38D+00 OVMax= 9.12D-01

 Cycle   3  Pass 1  IDiag  1:
 RMSU=  2.97D-03    CP:  9.72D-01  3.84D-01
 E= -33518.1212600302     Delta-E=       -1.801402174373 Rises=F Damp=F
 DIIS: error= 5.93D-02 at cycle   3 NSaved=   3.
 NSaved= 3 IEnMin= 3 EnMin= -33518.1212600302     IErMin= 3 ErrMin= 5.93D-02
 ErrMax= 5.93D-02  0.00D+00 EMaxC= 1.00D-01 BMatC= 1.94D+01 BMatP= 1.71D+02
 IDIUse=3 WtCom= 4.07D-01 WtEn= 5.93D-01
 EnCoef did   100 forward-backward iterations
 Coeff-Com:  0.769D+00-0.856D+00 0.109D+01
 Coeff-En:   0.347D+00 0.680D-02 0.647D+00
 Coeff:      0.519D+00-0.345D+00 0.826D+00
 Gap=     0.081 Goal=   None    Shift=    0.000
 RMSDP=5.96D-03 MaxDP=1.21D+00 DE=-1.80D+00 OVMax= 8.74D-01

 Cycle   4  Pass 1  IDiag  1:
 RMSU=  5.22D-03    CP:  1.03D+00  8.58D-01  2.51D-01
 E= -33506.8159261142     Delta-E=       11.305333915996 Rises=F Damp=F
 DIIS: error= 4.93D-02 at cycle   4 NSaved=   4.
 NSaved= 4 IEnMin= 3 EnMin= -33518.1212600302     IErMin= 4 ErrMin= 4.93D-02
 ErrMax= 4.93D-02  0.00D+00 EMaxC= 1.00D-01 BMatC= 1.33D+01 BMatP= 1.94D+01
 IDIUse=3 WtCom= 5.07D-01 WtEn= 4.93D-01
 EnCoef did     6 forward-backward iterations
 Coeff-Com:  0.473D+00-0.556D+00 0.662D+00 0.421D+00
 Coeff-En:   0.287D+00 0.000D+00 0.626D+00 0.870D-01
 Coeff:      0.381D+00-0.282D+00 0.644D+00 0.256D+00
 Gap=    -0.013 Goal=   None    Shift=    0.000
 RMSDP=5.45D-03 MaxDP=1.31D+00 DE= 1.13D+01 OVMax= 7.17D-01

 Cycle   5  Pass 1  IDiag  1:
 RMSU=  1.19D-03    CP:  9.89D-01  2.62D-01  5.44D-01  8.86D-02
 E= -33521.1010217231     Delta-E=      -14.285095608830 Rises=F Damp=F
 DIIS: error= 8.01D-03 at cycle   5 NSaved=   5.
 NSaved= 5 IEnMin= 5 EnMin= -33521.1010217231     IErMin= 5 ErrMin= 8.01D-03
 ErrMax= 8.01D-03  0.00D+00 EMaxC= 1.00D-01 BMatC= 4.69D-01 BMatP= 1.33D+01
 IDIUse=3 WtCom= 9.20D-01 WtEn= 8.01D-02
 Coeff-Com: -0.376D-01 0.683D-01 0.107D+00 0.994D-01 0.763D+00
 Coeff-En:   0.000D+00 0.000D+00 0.000D+00 0.000D+00 0.100D+01
 Coeff:     -0.346D-01 0.629D-01 0.988D-01 0.914D-01 0.782D+00
 Gap=     0.180 Goal=   None    Shift=    0.000
 RMSDP=1.78D-03 MaxDP=2.00D-01 DE=-1.43D+01 OVMax= 3.06D-01

 Cycle   6  Pass 1  IDiag  1:
 RMSU=  1.23D-03    CP:  9.53D-01  2.00D-01  5.91D-01  9.55D-02  5.78D-03
 E= -33520.9602796932     Delta-E=        0.140742029878 Rises=F Damp=F
 DIIS: error= 8.57D-03 at cycle   6 NSaved=   6.
 NSaved= 6 IEnMin= 5 EnMin= -33521.1010217231     IErMin= 5 ErrMin= 8.01D-03
 ErrMax= 8.57D-03  0.00D+00 EMaxC= 1.00D-01 BMatC= 5.28D-01 BMatP= 4.69D-01
 IDIUse=3 WtCom= 9.20D-01 WtEn= 8.01D-02
 Coeff-Com: -0.147D+00 0.206D+00-0.531D-02 0.103D-01 0.506D+00 0.430D+00
 Coeff-En:   0.000D+00 0.000D+00 0.000D+00 0.000D+00 0.587D+00 0.413D+00
 Coeff:     -0.135D+00 0.189D+00-0.488D-02 0.949D-02 0.512D+00 0.429D+00
 Gap=     0.131 Goal=   None    Shift=    0.000
 RMSDP=9.37D-04 MaxDP=9.45D-02 DE= 1.41D-01 OVMax= 1.40D-01

 Cycle   7  Pass 1  IDiag  1:
 RMSU=  4.75D-04    CP:  9.69D-01  2.41D-01  6.20D-01  1.17D-01  4.15D-01
                    CP:  5.30D-01
 E= -33521.4201109234     Delta-E=       -0.459831230182 Rises=F Damp=F
 DIIS: error= 2.79D-03 at cycle   7 NSaved=   7.
 NSaved= 7 IEnMin= 7 EnMin= -33521.4201109234     IErMin= 7 ErrMin= 2.79D-03
 ErrMax= 2.79D-03  0.00D+00 EMaxC= 1.00D-01 BMatC= 4.19D-02 BMatP= 4.69D-01
 IDIUse=3 WtCom= 9.72D-01 WtEn= 2.79D-02
 Coeff-Com: -0.596D-01 0.823D-01-0.121D-01 0.866D-02 0.239D+00 0.213D+00
 Coeff-Com:  0.529D+00
 Coeff-En:   0.000D+00 0.000D+00 0.000D+00 0.000D+00 0.000D+00 0.000D+00
 Coeff-En:   0.100D+01
 Coeff:     -0.579D-01 0.800D-01-0.117D-01 0.842D-02 0.232D+00 0.207D+00
 Coeff:      0.542D+00
 Gap=     0.087 Goal=   None    Shift=    0.000
 RMSDP=3.73D-04 MaxDP=3.35D-02 DE=-4.60D-01 OVMax= 6.80D-02

 Cycle   8  Pass 1  IDiag  1:
 RMSU=  2.96D-04    CP:  9.67D-01  2.56D-01  6.17D-01  1.33D-01  4.67D-01
                    CP:  5.51D-01  5.99D-01
 E= -33521.4308319335     Delta-E=       -0.010721010141 Rises=F Damp=F
 DIIS: error= 1.81D-03 at cycle   8 NSaved=   8.
 NSaved= 8 IEnMin= 8 EnMin= -33521.4308319335     IErMin= 8 ErrMin= 1.81D-03
 ErrMax= 1.81D-03  0.00D+00 EMaxC= 1.00D-01 BMatC= 1.67D-02 BMatP= 4.19D-02
 IDIUse=3 WtCom= 9.82D-01 WtEn= 1.81D-02
 Coeff-Com: -0.197D-01 0.263D-01-0.111D-01 0.720D-02 0.673D-01 0.546D-01
 Coeff-Com:  0.421D+00 0.455D+00
 Coeff-En:   0.000D+00 0.000D+00 0.000D+00 0.000D+00 0.000D+00 0.000D+00
 Coeff-En:   0.404D+00 0.596D+00
 Coeff:     -0.194D-01 0.258D-01-0.109D-01 0.707D-02 0.661D-01 0.536D-01
 Coeff:      0.420D+00 0.457D+00
 Gap=     0.086 Goal=   None    Shift=    0.000
 RMSDP=1.71D-04 MaxDP=1.33D-02 DE=-1.07D-02 OVMax= 4.24D-02

 Cycle   9  Pass 1  IDiag  1:
 RMSU=  9.92D-05    CP:  9.70D-01  2.60D-01  6.10D-01  1.37D-01  4.97D-01
                    CP:  5.33D-01  7.58D-01  6.60D-01
 E= -33521.4471722469     Delta-E=       -0.016340313377 Rises=F Damp=F
 DIIS: error= 4.25D-04 at cycle   9 NSaved=   9.
 NSaved= 9 IEnMin= 9 EnMin= -33521.4471722469     IErMin= 9 ErrMin= 4.25D-04
 ErrMax= 4.25D-04  0.00D+00 EMaxC= 1.00D-01 BMatC= 1.36D-03 BMatP= 1.67D-02
 IDIUse=3 WtCom= 9.96D-01 WtEn= 4.25D-03
 Coeff-Com: -0.423D-02 0.530D-02-0.474D-02 0.243D-02-0.407D-02-0.905D-03
 Coeff-Com:  0.180D+00 0.262D+00 0.565D+00
 Coeff-En:   0.000D+00 0.000D+00 0.000D+00 0.000D+00 0.000D+00 0.000D+00
 Coeff-En:   0.000D+00 0.000D+00 0.100D+01
 Coeff:     -0.422D-02 0.528D-02-0.472D-02 0.242D-02-0.405D-02-0.901D-03
 Coeff:      0.179D+00 0.261D+00 0.566D+00
 Gap=     0.084 Goal=   None    Shift=    0.000
 RMSDP=7.66D-05 MaxDP=6.09D-03 DE=-1.63D-02 OVMax= 1.08D-02

 Cycle  10  Pass 1  IDiag  1:
 RMSU=  5.56D-05    CP:  9.68D-01  2.62D-01  6.15D-01  1.38D-01  4.83D-01
                    CP:  5.47D-01  7.89D-01  7.35D-01  7.61D-01
 E= -33521.4479912768     Delta-E=       -0.000819029876 Rises=F Damp=F
 DIIS: error= 1.79D-04 at cycle  10 NSaved=  10.
 NSaved=10 IEnMin=10 EnMin= -33521.4479912768     IErMin=10 ErrMin= 1.79D-04
 ErrMax= 1.79D-04  0.00D+00 EMaxC= 1.00D-01 BMatC= 3.79D-04 BMatP= 1.36D-03
 IDIUse=3 WtCom= 9.98D-01 WtEn= 1.79D-03
 Coeff-Com: -0.316D-03 0.246D-03-0.139D-02 0.900D-03-0.899D-02-0.196D-02
 Coeff-Com:  0.574D-01 0.910D-01 0.385D+00 0.478D+00
 Coeff-En:   0.000D+00 0.000D+00 0.000D+00 0.000D+00 0.000D+00 0.000D+00
 Coeff-En:   0.000D+00 0.000D+00 0.280D+00 0.720D+00
 Coeff:     -0.315D-03 0.246D-03-0.139D-02 0.898D-03-0.897D-02-0.196D-02
 Coeff:      0.573D-01 0.908D-01 0.385D+00 0.479D+00
 Gap=     0.084 Goal=   None    Shift=    0.000
 RMSDP=3.34D-05 MaxDP=3.45D-03 DE=-8.19D-04 OVMax= 5.95D-03

 Error on total polarization charges =  0.02737
 SCF Done:  E(RPBE-PBE) =  -33521.4479913     A.U. after   10 cycles
            NFock= 10  Conv=0.33D-04     -V/T= 2.0152
 KE= 3.301957027235D+04 PE=-1.065820394176D+05 EE= 2.640400666730D+04
 Leave Link  502 at Sat Aug 24 15:45:37 2019, MaxMem=   939524096 cpu:     29625.8
 (Enter /scr/programas/g09/l801.exe)
 Range of M.O.s used for correlation:     1  1544
 NBasis=  1544 NAE=   248 NBE=   248 NFC=     0 NFV=     0
 NROrb=   1544 NOA=   248 NOB=   248 NVA=  1296 NVB=  1296

 **** Warning!!: The largest alpha MO coefficient is  0.69722670D+02


 **** Warning!!: The smallest alpha delta epsilon is  0.83662048D-01

 Leave Link  801 at Sat Aug 24 15:45:37 2019, MaxMem=   939524096 cpu:         0.3
 (Enter /scr/programas/g09/l1002.exe)
 Minotr:  Closed shell wavefunction.
 NEqPCM:  Using equilibrium solvation (IEInf=0, Eps=   8.9300, EpsInf=   2.0283)
          Direct CPHF calculation.
          Differentiating once with respect to magnetic field using GIAOs.
          Electric field/nuclear overlap derivatives assumed to be zero.
          Requested convergence is 1.0D-08 RMS, and 1.0D-07 maximum.
          Secondary convergence is 1.0D-12 RMS, and 1.0D-12 maximum.
          NewPWx=T KeepS1=F KeepF1=F KeepIn=T MapXYZ=F SortEE=F KeepMc=T.
          MDV=     939522012 using IRadAn=       2.
 Defaulting to unpruned grid for atomic number  50.
 Defaulting to unpruned grid for atomic number  78.
 Generate precomputed XC quadrature information.
          Solving linear equations simultaneously, MaxMat=      72.
 FoFJK:  IHMeth= 1 ICntrl=    6127 DoSepK=F KAlg= 0 I1Cent=   0 FoldK=F
 IRaf=         1 NMat=   1 IRICut=       1 DoRegI=T DoRafI=F ISym2E= 0.
 Defaulting to unpruned grid for atomic number  78.
 Defaulting to unpruned grid for atomic number  78.
 Defaulting to unpruned grid for atomic number  78.
 Defaulting to unpruned grid for atomic number  78.
          There are     3 degrees of freedom in the 1st order CPHF.  IDoFFX=0 NUNeed=     3.
      3 vectors produced by pass  0 Test12= 1.07D-11 3.33D-08 XBig12= 7.06D+02 2.83D+00.
 AX will form     3 AO Fock derivatives at one time.
 InvSVY:  IOpt=1 It=  1 EMax= 0.00D+00
 Solved reduced A of dimension     3 with     3 vectors.
 Calculating GIAO nuclear magnetic shielding tensors.
 SCF GIAO Magnetic shielding tensor (ppm):
      1  P    Isotropic =   263.0262   Anisotropy =    49.4534
   XX=   256.4687   YX=   -19.5334   ZX=   -29.5959
   XY=     7.0264   YY=   272.9432   ZY=   -21.0604
   XZ=     4.1945   YZ=   -36.3048   ZZ=   259.6667
   Eigenvalues:   229.6832   263.4003   295.9951
      2  P    Isotropic =   277.4400   Anisotropy =    75.3007
   XX=   264.4154   YX=   -36.2559   ZX=     7.9143
   XY=    -1.4148   YY=   274.7715   ZY=   -16.7820
   XZ=     6.4905   YZ=   -58.7256   ZZ=   293.1332
   Eigenvalues:   239.9525   264.7271   327.6405
      3  C    Isotropic =    42.5457   Anisotropy =   125.9683
   XX=    79.1259   YX=   -72.2611   ZX=     9.1283
   XY=   -60.7520   YY=    28.2896   ZY=    24.0774
   XZ=    12.9883   YZ=    52.1239   ZZ=    20.2216
   Eigenvalues:   -41.0080    42.1206   126.5246
      4  C    Isotropic =    20.3601   Anisotropy =   154.8163
   XX=    51.9924   YX=   -86.2729   ZX=   -19.6910
   XY=   -78.6906   YY=    -7.2412   ZY=    45.5617
   XZ=     2.7169   YZ=    58.1617   ZZ=    16.3291
   Eigenvalues:   -80.8929    18.4022   123.5710
      5  C    Isotropic =    18.0956   Anisotropy =   157.4325
   XX=    73.2581   YX=   -55.6156   ZX=   -19.9031
   XY=   -57.3972   YY=     2.9947   ZY=    82.8474
   XZ=   -15.3712   YZ=    53.3199   ZZ=   -21.9660
   Eigenvalues:   -82.5035    13.7397   123.0506
      6  C    Isotropic =    50.3559   Anisotropy =   112.3968
   XX=   105.9847   YX=   -29.3450   ZX=     7.1909
   XY=   -50.6467   YY=    24.4357   ZY=    55.7464
   XZ=    -7.1337   YZ=    31.1157   ZZ=    20.6472
   Eigenvalues:   -27.1025    52.8831   125.2871
      7  C    Isotropic =   164.3827   Anisotropy =    32.2769
   XX=   168.3999   YX=    10.7166   ZX=     8.2091
   XY=    11.7968   YY=   171.1096   ZY=    10.7857
   XZ=     5.4274   YZ=    10.3456   ZZ=   153.6385
   Eigenvalues:   148.5265   158.7209   185.9006
      8  C    Isotropic =   163.7215   Anisotropy =    30.3279
   XX=   157.8371   YX=    -6.2661   ZX=     5.4522
   XY=    -7.5615   YY=   152.0814   ZY=    -3.5704
   XZ=     8.4895   YZ=    -2.7368   ZZ=   181.2459
   Eigenvalues:   147.4189   159.8054   183.9400
      9  C    Isotropic =    53.8538   Anisotropy =   107.2353
   XX=    97.9905   YX=   -36.4714   ZX=    12.5922
   XY=   -43.0906   YY=    58.0478   ZY=    51.3953
   XZ=    -1.6832   YZ=    31.4335   ZZ=     5.5231
   Eigenvalues:   -22.4504    58.6678   125.3440
     10  C    Isotropic =    24.5623   Anisotropy =   168.0724
   XX=    71.7149   YX=   -67.6608   ZX=     1.1245
   XY=   -68.2731   YY=    48.9317   ZY=    65.2076
   XZ=    -2.1639   YZ=    43.7578   ZZ=   -46.9596
   Eigenvalues:   -77.7040    14.7804   136.6106
     11  C    Isotropic =    25.6316   Anisotropy =   173.4823
   XX=    45.6618   YX=   -99.1865   ZX=     1.4542
   XY=   -95.2555   YY=    28.4859   ZY=    41.3391
   XZ=     9.2207   YZ=    57.3634   ZZ=     2.7471
   Eigenvalues:   -80.6773    16.2856   141.2865
     12  C    Isotropic =    31.2999   Anisotropy =   131.5369
   XX=    70.7767   YX=   -59.6047   ZX=    23.7711
   XY=   -63.8188   YY=    39.7731   ZY=    15.6104
   XZ=    35.5741   YZ=    49.9456   ZZ=   -16.6501
   Eigenvalues:   -56.8243    31.7328   118.9912
     13  C    Isotropic =   166.3614   Anisotropy =    31.9730
   XX=   156.4760   YX=    -0.6718   ZX=     8.2382
   XY=    -5.8459   YY=   158.2998   ZY=     0.3014
   XZ=    12.2643   YZ=     1.6945   ZZ=   184.3085
   Eigenvalues:   151.4201   159.9874   187.6768
     14  C    Isotropic =   162.1992   Anisotropy =    33.1085
   XX=   172.4327   YX=    12.1846   ZX=     5.1073
   XY=    18.2027   YY=   163.0058   ZY=     3.9016
   XZ=     1.5163   YZ=     2.6780   ZZ=   151.1590
   Eigenvalues:   150.2255   152.1005   184.2715
     15  H    Isotropic =    24.6022   Anisotropy =     8.6297
   XX=    28.4100   YX=    -1.1887   ZX=     4.5947
   XY=    -2.6533   YY=    24.1328   ZY=     0.1893
   XZ=     2.6393   YZ=     0.5564   ZZ=    21.2636
   Eigenvalues:    19.4847    23.9665    30.3553
     16  H    Isotropic =    24.6997   Anisotropy =     9.2900
   XX=    25.5964   YX=     2.2059   ZX=     4.6204
   XY=     0.1329   YY=    22.5736   ZY=     0.6923
   XZ=     5.3790   YZ=    -0.0915   ZZ=    25.9291
   Eigenvalues:    20.5522    22.6538    30.8930
     17  H    Isotropic =    29.5788   Anisotropy =     7.5983
   XX=    26.6500   YX=     1.5951   ZX=     1.5051
   XY=     1.8706   YY=    28.9801   ZY=     3.4558
   XZ=     1.3785   YZ=     1.1187   ZZ=    33.1064
   Eigenvalues:    25.7201    28.3720    34.6444
     18  H    Isotropic =    29.7988   Anisotropy =     9.9267
   XX=    36.0706   YX=     0.2610   ZX=     2.0570
   XY=    -0.1094   YY=    26.6289   ZY=     1.4311
   XZ=     1.5760   YZ=     0.4548   ZZ=    26.6971
   Eigenvalues:    25.5677    27.4122    36.4166
     19  H    Isotropic =    29.5587   Anisotropy =     4.9226
   XX=    29.0061   YX=     1.9807   ZX=     2.8839
   XY=     1.4095   YY=    32.0908   ZY=    -2.4130
   XZ=     3.4646   YZ=    -0.3386   ZZ=    27.5793
   Eigenvalues:    24.4419    31.3938    32.8404
     20  H    Isotropic =    29.4567   Anisotropy =     9.2058
   XX=    33.4182   YX=     0.6768   ZX=     3.6724
   XY=    -0.4061   YY=    26.2588   ZY=    -1.7680
   XZ=     3.9879   YZ=    -1.1388   ZZ=    28.6932
   Eigenvalues:    25.0454    27.7309    35.5939
     21  H    Isotropic =    29.4426   Anisotropy =     7.8215
   XX=    26.8800   YX=    -1.0145   ZX=    -0.6744
   XY=    -0.7750   YY=    28.4286   ZY=     3.0842
   XZ=     0.3486   YZ=     3.2062   ZZ=    33.0193
   Eigenvalues:    26.1134    27.5575    34.6570
     22  H    Isotropic =    29.1841   Anisotropy =     6.6591
   XX=    26.8428   YX=     1.1713   ZX=     2.9661
   XY=     2.0020   YY=    29.5172   ZY=    -1.9020
   XZ=     1.6566   YZ=    -4.1348   ZZ=    31.1922
   Eigenvalues:    24.3183    29.6104    33.6235
     23  H    Isotropic =    24.3556   Anisotropy =     9.9744
   XX=    24.5195   YX=     2.9607   ZX=     4.8004
   XY=     2.5238   YY=    22.5700   ZY=     0.2360
   XZ=     5.6367   YZ=     0.2630   ZZ=    25.9773
   Eigenvalues:    18.8919    23.1696    31.0052
     24  H    Isotropic =    22.6591   Anisotropy =     7.2018
   XX=    26.4761   YX=    -0.5022   ZX=     2.9352
   XY=     1.2375   YY=    22.8564   ZY=    -1.2839
   XZ=     2.9541   YZ=    -1.2356   ZZ=    18.6448
   Eigenvalues:    17.3490    23.1680    27.4603
     25  H    Isotropic =    29.2987   Anisotropy =     7.0745
   XX=    25.4940   YX=     1.2827   ZX=     0.4413
   XY=     1.1602   YY=    30.7587   ZY=     1.9181
   XZ=     2.2602   YZ=     2.8513   ZZ=    31.6435
   Eigenvalues:    25.1040    28.7771    34.0151
     26  H    Isotropic =    29.7503   Anisotropy =     9.4987
   XX=    32.9289   YX=    -1.7256   ZX=     3.9638
   XY=    -1.8101   YY=    27.7028   ZY=    -2.3872
   XZ=     4.1506   YZ=    -1.2089   ZZ=    28.6191
   Eigenvalues:    25.8549    27.3132    36.0827
     27  H    Isotropic =    29.2193   Anisotropy =     6.4585
   XX=    28.3533   YX=     2.7015   ZX=     0.9256
   XY=     2.9143   YY=    26.2540   ZY=    -0.8668
   XZ=    -0.6458   YZ=    -2.5740   ZZ=    33.0506
   Eigenvalues:    24.0548    30.0782    33.5249
     28  H    Isotropic =    29.4791   Anisotropy =     9.7200
   XX=    34.4727   YX=     0.2410   ZX=     4.2373
   XY=    -0.2889   YY=    26.1079   ZY=    -1.9008
   XZ=     2.5335   YZ=    -1.9196   ZZ=    27.8567
   Eigenvalues:    24.4830    27.9953    35.9591
     29  H    Isotropic =    28.9667   Anisotropy =     6.0227
   XX=    27.7409   YX=    -0.2208   ZX=     1.8848
   XY=     0.8173   YY=    30.9834   ZY=     2.8662
   XZ=     1.3256   YZ=     2.7988   ZZ=    28.1758
   Eigenvalues:    25.6572    28.2612    32.9819
     30  Pt   Isotropic =  3670.9145   Anisotropy =  1348.2047
   XX=  4453.2471   YX=  -297.0867   ZX=  -124.3520
   XY=  -475.2568   YY=  3287.4151   ZY=   241.9735
   XZ=   127.1267   YZ=  -133.3322   ZZ=  3272.0813
   Eigenvalues:  3148.7948  3294.2311  4569.7177
     31  Sn   Isotropic =  2133.7084   Anisotropy =   723.9547
   XX=  2063.7289   YX=   216.4333   ZX=     5.7521
   XY=   190.7718   YY=  2527.8778   ZY=  -124.8555
   XZ=    -5.3885   YZ=   -83.6459   ZZ=  1809.5187
   Eigenvalues:  1790.8935  1993.8869  2616.3449
     32  Cl   Isotropic =   720.7033   Anisotropy =   314.4111
   XX=   732.7764   YX=  -139.7966   ZX=    40.8717
   XY=  -162.1376   YY=   775.2094   ZY=   -69.8630
   XZ=    35.8967   YZ=   -78.1045   ZZ=   654.1241
   Eigenvalues:   592.2083   639.5909   930.3107
     33  Cl   Isotropic =   763.8916   Anisotropy =   317.6021
   XX=   723.3695   YX=    31.1976   ZX=    89.2652
   XY=    55.6043   YY=   739.7330   ZY=   140.3187
   XZ=    63.6828   YZ=   169.7900   ZZ=   828.5724
   Eigenvalues:   621.2178   694.8306   975.6264
     34  Cl   Isotropic =   709.0453   Anisotropy =   351.6574
   XX=   798.5428   YX=    41.9632   ZX=  -129.3381
   XY=    59.6641   YY=   591.8683   ZY=  -115.3257
   XZ=  -129.8375   YZ=  -142.1892   ZZ=   736.7249
   Eigenvalues:   514.4585   669.1939   943.4836
     35  Sn   Isotropic =  2122.8831   Anisotropy =   728.1082
   XX=  2080.5518   YX=   218.5708   ZX=   -34.1765
   XY=   199.1619   YY=  2456.1233   ZY=  -210.6795
   XZ=   -60.0294   YZ=  -215.3381   ZZ=  1831.9742
   Eigenvalues:  1765.1274  1995.2332  2608.2886
     36  Cl   Isotropic =   729.3696   Anisotropy =   333.7187
   XX=   713.5846   YX=    57.3523   ZX=    90.6829
   XY=    74.0575   YY=   776.2573   ZY=   151.2394
   XZ=    67.2027   YZ=   183.7094   ZZ=   698.2670
   Eigenvalues:   561.7248   674.5353   951.8487
     37  Cl   Isotropic =   729.7621   Anisotropy =   301.5502
   XX=   718.9462   YX=  -122.6693   ZX=    70.7366
   XY=  -142.3542   YY=   761.2082   ZY=   -84.7927
   XZ=    75.9599   YZ=   -84.3449   ZZ=   709.1317
   Eigenvalues:   605.8765   652.6141   930.7955
     38  Cl   Isotropic =   724.1285   Anisotropy =   338.2443
   XX=   806.3980   YX=     3.9825   ZX=  -142.1064
   XY=    16.6771   YY=   578.4275   ZY=   -39.5400
   XZ=  -149.5263   YZ=   -81.4489   ZZ=   787.5600
   Eigenvalues:   557.5047   665.2561   949.6247
     39  C    Isotropic =   135.9314   Anisotropy =    21.6783
   XX=   125.3804   YX=   -15.2426   ZX=    12.3488
   XY=   -15.4940   YY=   140.3552   ZY=    -1.0508
   XZ=   -12.4614   YZ=     5.3848   ZZ=   142.0586
   Eigenvalues:   115.7264   141.6842   150.3836
     40  H    Isotropic =    26.8883   Anisotropy =     7.9331
   XX=    24.0708   YX=     0.0542   ZX=    -2.3342
   XY=     1.6293   YY=    31.4202   ZY=    -1.0034
   XZ=    -3.0942   YZ=    -2.4724   ZZ=    25.1739
   Eigenvalues:    21.8303    26.6576    32.1770
     41  H    Isotropic =    27.8758   Anisotropy =     8.8914
   XX=    32.3786   YX=    -2.9712   ZX=     0.1290
   XY=    -3.4099   YY=    26.3060   ZY=     1.5635
   XZ=    -0.3963   YZ=     1.3712   ZZ=    24.9428
   Eigenvalues:    23.6199    26.2040    33.8034
     42  C    Isotropic =   145.6899   Anisotropy =    53.3986
   XX=   175.4166   YX=    -5.6908   ZX=    -5.2567
   XY=   -11.0578   YY=   134.9783   ZY=    10.9022
   XZ=   -20.6898   YZ=    11.8291   ZZ=   126.6748
   Eigenvalues:   118.0346   137.7461   181.2889
     43  H    Isotropic =    27.1247   Anisotropy =     8.4765
   XX=    30.1967   YX=     0.2757   ZX=    -4.7642
   XY=     3.1673   YY=    28.9775   ZY=    -1.8641
   XZ=    -2.8440   YZ=    -0.3107   ZZ=    22.1999
   Eigenvalues:    20.6621    27.9362    32.7757
     44  H    Isotropic =    28.0439   Anisotropy =     8.1696
   XX=    31.0181   YX=    -3.1520   ZX=    -2.3410
   XY=    -1.1389   YY=    24.7320   ZY=     1.5912
   XZ=    -3.1635   YZ=     1.1425   ZZ=    28.3818
   Eigenvalues:    23.9931    26.6484    33.4904
     45  C    Isotropic =    44.6652   Anisotropy =   190.4869
   XX=   135.1343   YX=   -61.7589   ZX=   -42.3816
   XY=   -61.8627   YY=    49.3237   ZY=    15.0470
   XZ=   -16.8942   YZ=     3.1312   ZZ=   -50.4623
   Eigenvalues:   -55.0837    17.4228   171.6565
     46  C    Isotropic =    50.1557   Anisotropy =   178.3067
   XX=   122.5678   YX=   -86.5576   ZX=   -44.1573
   XY=   -76.9760   YY=     0.8212   ZY=   -17.1160
   XZ=   -33.4081   YZ=   -16.1998   ZZ=    27.0782
   Eigenvalues:   -53.7166    35.1569   169.0269
     47  C    Isotropic =    48.4422   Anisotropy =   165.5435
   XX=   122.4595   YX=   -67.1058   ZX=    -4.5092
   XY=   -69.6909   YY=     8.1564   ZY=    49.8729
   XZ=    -2.0351   YZ=    50.1189   ZZ=    14.7106
   Eigenvalues:   -53.3588    39.8808   158.8045
     48  C    Isotropic =    49.2033   Anisotropy =   186.4506
   XX=   135.8875   YX=   -74.6584   ZX=   -10.4739
   XY=   -69.3949   YY=     2.7752   ZY=    53.4985
   XZ=    -9.3348   YZ=    54.3688   ZZ=     8.9473
   Eigenvalues:   -60.4017    34.5079   173.5037
     49  H    Isotropic =    23.3688   Anisotropy =     8.6100
   XX=    20.5007   YX=    -0.1935   ZX=    -3.3809
   XY=    -0.9142   YY=    22.0224   ZY=    -0.3649
   XZ=    -3.5962   YZ=    -1.8596   ZZ=    27.5832
   Eigenvalues:    18.7949    22.2026    29.1088
     50  C    Isotropic =    50.4954   Anisotropy =   181.0346
   XX=   117.2953   YX=   -84.7355   ZX=   -39.8843
   XY=   -90.5267   YY=     9.0265   ZY=   -14.9035
   XZ=   -38.9970   YZ=   -17.3815   ZZ=    25.1643
   Eigenvalues:   -54.3762    34.6772   171.1851
     51  H    Isotropic =    24.0362   Anisotropy =     8.0903
   XX=    22.7510   YX=    -0.4535   ZX=    -0.9943
   XY=     0.6147   YY=    23.2685   ZY=     4.1016
   XZ=    -0.8166   YZ=     4.8248   ZZ=    26.0892
   Eigenvalues:    19.8709    22.8081    29.4298
     52  C    Isotropic =    48.2616   Anisotropy =   175.7617
   XX=   129.1642   YX=   -50.7673   ZX=   -37.8276
   XY=   -51.1590   YY=    59.6996   ZY=    11.8341
   XZ=   -49.0236   YZ=    12.7872   ZZ=   -44.0790
   Eigenvalues:   -54.3553    33.7040   165.4361
     53  H    Isotropic =    23.7935   Anisotropy =     6.9312
   XX=    21.3582   YX=     1.3176   ZX=    -0.3196
   XY=     0.6920   YY=    22.5178   ZY=     2.5323
   XZ=    -0.2455   YZ=     2.0958   ZZ=    27.5044
   Eigenvalues:    20.4370    22.5292    28.4143
     54  H    Isotropic =    24.2488   Anisotropy =     5.5046
   XX=    21.8869   YX=    -0.3497   ZX=    -1.3284
   XY=     0.7099   YY=    23.1318   ZY=     0.1027
   XZ=    -0.8159   YZ=     0.0167   ZZ=    27.7278
   Eigenvalues:    21.6721    23.1558    27.9185
     55  H    Isotropic =    24.2847   Anisotropy =     2.7339
   XX=    22.8479   YX=     1.4616   ZX=    -1.1665
   XY=     1.7064   YY=    25.3361   ZY=     0.7055
   XZ=    -0.3252   YZ=     0.1055   ZZ=    24.6702
   Eigenvalues:    21.8250    24.9218    26.1073
     56  H    Isotropic =    29.2319   Anisotropy =     5.7853
   XX=    30.4674   YX=     3.9083   ZX=    -0.2831
   XY=     2.8616   YY=    27.8490   ZY=    -3.1052
   XZ=     1.2804   YZ=    -1.7270   ZZ=    29.3793
   Eigenvalues:    24.4543    30.1526    33.0888
     57  C    Isotropic =    36.5056   Anisotropy =   161.8359
   XX=   -52.2983   YX=    -5.7424   ZX=     4.7938
   XY=     0.5931   YY=   109.3872   ZY=    55.4172
   XZ=    13.6731   YZ=    57.9874   ZZ=    52.4279
   Eigenvalues:   -53.5291    18.6496   144.3962
     58  C    Isotropic =    46.5180   Anisotropy =   158.2527
   XX=     7.2290   YX=    29.8883   ZX=   -36.0956
   XY=    38.5020   YY=   105.5709   ZY=    75.6974
   XZ=   -33.7645   YZ=    74.7189   ZZ=    26.7541
   Eigenvalues:   -55.3088    42.8431   152.0198
     59  C    Isotropic =    50.0864   Anisotropy =   167.9670
   XX=    36.3812   YX=    -9.6344   ZX=    23.9862
   XY=     1.3985   YY=   100.8724   ZY=    90.6102
   XZ=    35.9873   YZ=    97.5188   ZZ=    13.0057
   Eigenvalues:   -55.2077    43.4026   162.0644
     60  C    Isotropic =    45.4725   Anisotropy =   184.1968
   XX=    23.0547   YX=    -9.6343   ZX=    35.5891
   XY=    -5.6172   YY=   113.2294   ZY=    97.6722
   XZ=    33.7799   YZ=    92.8869   ZZ=     0.1335
   Eigenvalues:   -66.9604    35.1076   168.2704
     61  H    Isotropic =    24.2903   Anisotropy =    10.3216
   XX=    26.7450   YX=     0.1868   ZX=    -5.9616
   XY=    -0.5427   YY=    21.5166   ZY=     0.3801
   XZ=    -4.7990   YZ=     0.1156   ZZ=    24.6094
   Eigenvalues:    20.1873    21.5123    31.1714
     62  C    Isotropic =    41.7624   Anisotropy =   176.6740
   XX=    -8.0904   YX=    34.5026   ZX=   -40.7163
   XY=    40.9561   YY=   103.4277   ZY=    84.1694
   XZ=   -33.9232   YZ=    84.6345   ZZ=    29.9501
   Eigenvalues:   -69.5608    35.3031   159.5451
     63  H    Isotropic =    24.1943   Anisotropy =    11.7481
   XX=    29.6946   YX=    -4.5226   ZX=     0.7661
   XY=    -4.4258   YY=    23.3493   ZY=    -0.7663
   XZ=     0.0132   YZ=     0.1250   ZZ=    19.5391
   Eigenvalues:    19.5123    21.0444    32.0264
     64  C    Isotropic =    51.1823   Anisotropy =   220.2776
   XX=   -71.9313   YX=    13.8371   ZX=    30.7198
   XY=     5.6757   YY=   152.9949   ZY=    73.5315
   XZ=    20.9511   YZ=    72.9243   ZZ=    72.4834
   Eigenvalues:   -76.4576    31.9705   198.0341
     65  H    Isotropic =    22.2894   Anisotropy =     9.2362
   XX=    27.9543   YX=    -2.6152   ZX=    -1.3883
   XY=    -1.8858   YY=    16.8380   ZY=    -2.8903
   XZ=    -0.7008   YZ=    -1.9526   ZZ=    22.0761
   Eigenvalues:    15.4014    23.0200    28.4469
     66  H    Isotropic =    22.0974   Anisotropy =     9.1402
   XX=    27.0935   YX=    -2.0970   ZX=    -3.0264
   XY=    -1.0377   YY=    18.1332   ZY=    -3.1342
   XZ=    -2.5621   YZ=    -4.2943   ZZ=    21.0655
   Eigenvalues:    14.9175    23.1839    28.1908
     67  H    Isotropic =    21.0414   Anisotropy =     7.8496
   XX=    24.4255   YX=    -3.3866   ZX=    -1.6960
   XY=    -1.8921   YY=    15.9904   ZY=    -6.1456
   XZ=    -0.7419   YZ=    -5.8201   ZZ=    22.7085
   Eigenvalues:    11.8234    25.0264    26.2745
 End of Minotr F.D. properties file   721 does not exist.
 End of Minotr F.D. properties file   722 does not exist.
 End of Minotr F.D. properties file   788 does not exist.
 Leave Link 1002 at Sat Aug 24 20:34:44 2019, MaxMem=   939524096 cpu:     68935.5
 (Enter /scr/programas/g09/l601.exe)
 Copying SCF densities to generalized density rwf, IOpCl= 0 IROHF=0.

 **********************************************************************

            Population analysis using the SCF density.

 **********************************************************************

 Orbital symmetries:
       Occupied  (A) (A) (A) (A) (A) (A) (A) (A) (A) (A) (A) (A)
                 (A) (A) (A) (A) (A) (A) (A) (A) (A) (A) (A) (A)
                 (A) (A) (A) (A) (A) (A) (A) (A) (A) (A) (A) (A)
                 (A) (A) (A) (A) (A) (A) (A) (A) (A) (A) (A) (A)
                 (A) (A) (A) (A) (A) (A) (A) (A) (A) (A) (A) (A)
                 (A) (A) (A) (A) (A) (A) (A) (A) (A) (A) (A) (A)
                 (A) (A) (A) (A) (A) (A) (A) (A) (A) (A) (A) (A)
                 (A) (A) (A) (A) (A) (A) (A) (A) (A) (A) (A) (A)
                 (A) (A) (A) (A) (A) (A) (A) (A) (A) (A) (A) (A)
                 (A) (A) (A) (A) (A) (A) (A) (A) (A) (A) (A) (A)
                 (A) (A) (A) (A) (A) (A) (A) (A) (A) (A) (A) (A)
                 (A) (A) (A) (A) (A) (A) (A) (A) (A) (A) (A) (A)
                 (A) (A) (A) (A) (A) (A) (A) (A) (A) (A) (A) (A)
                 (A) (A) (A) (A) (A) (A) (A) (A) (A) (A) (A) (A)
                 (A) (A) (A) (A) (A) (A) (A) (A) (A) (A) (A) (A)
                 (A) (A) (A) (A) (A) (A) (A) (A) (A) (A) (A) (A)
                 (A) (A) (A) (A) (A) (A) (A) (A) (A) (A) (A) (A)
                 (A) (A) (A) (A) (A) (A) (A) (A) (A) (A) (A) (A)
                 (A) (A) (A) (A) (A) (A) (A) (A) (A) (A) (A) (A)
                 (A) (A) (A) (A) (A) (A) (A) (A) (A) (A) (A) (A)
                 (A) (A) (A) (A) (A) (A) (A) (A)
       Virtual   (A) (A) (A) (A) (A) (A) (A) (A) (A) (A) (A) (A)
                 (A) (A) (A) (A) (A) (A) (A) (A) (A) (A) (A) (A)
                 (A) (A) (A) (A) (A) (A) (A) (A) (A) (A) (A) (A)
                 (A) (A) (A) (A) (A) (A) (A) (A) (A) (A) (A) (A)
                 (A) (A) (A) (A) (A) (A) (A) (A) (A) (A) (A) (A)
                 (A) (A) (A) (A) (A) (A) (A) (A) (A) (A) (A) (A)
                 (A) (A) (A) (A) (A) (A) (A) (A) (A) (A) (A) (A)
                 (A) (A) (A) (A) (A) (A) (A) (A) (A) (A) (A) (A)
                 (A) (A) (A) (A) (A) (A) (A) (A) (A) (A) (A) (A)
                 (A) (A) (A) (A) (A) (A) (A) (A) (A) (A) (A) (A)
                 (A) (A) (A) (A) (A) (A) (A) (A) (A) (A) (A) (A)
                 (A) (A) (A) (A) (A) (A) (A) (A) (A) (A) (A) (A)
                 (A) (A) (A) (A) (A) (A) (A) (A) (A) (A) (A) (A)
                 (A) (A) (A) (A) (A) (A) (A) (A) (A) (A) (A) (A)
                 (A) (A) (A) (A) (A) (A) (A) (A) (A) (A) (A) (A)
                 (A) (A) (A) (A) (A) (A) (A) (A) (A) (A) (A) (A)
                 (A) (A) (A) (A) (A) (A) (A) (A) (A) (A) (A) (A)
                 (A) (A) (A) (A) (A) (A) (A) (A) (A) (A) (A) (A)
                 (A) (A) (A) (A) (A) (A) (A) (A) (A) (A) (A) (A)
                 (A) (A) (A) (A) (A) (A) (A) (A) (A) (A) (A) (A)
                 (A) (A) (A) (A) (A) (A) (A) (A) (A) (A) (A) (A)
                 (A) (A) (A) (A) (A) (A) (A) (A) (A) (A) (A) (A)
                 (A) (A) (A) (A) (A) (A) (A) (A) (A) (A) (A) (A)
                 (A) (A) (A) (A) (A) (A) (A) (A) (A) (A) (A) (A)
                 (A) (A) (A) (A) (A) (A) (A) (A) (A) (A) (A) (A)
                 (A) (A) (A) (A) (A) (A) (A) (A) (A) (A) (A) (A)
                 (A) (A) (A) (A) (A) (A) (A) (A) (A) (A) (A) (A)
                 (A) (A) (A) (A) (A) (A) (A) (A) (A) (A) (A) (A)
                 (A) (A) (A) (A) (A) (A) (A) (A) (A) (A) (A) (A)
                 (A) (A) (A) (A) (A) (A) (A) (A) (A) (A) (A) (A)
                 (A) (A) (A) (A) (A) (A) (A) (A) (A) (A) (A) (A)
                 (A) (A) (A) (A) (A) (A) (A) (A) (A) (A) (A) (A)
                 (A) (A) (A) (A) (A) (A) (A) (A) (A) (A) (A) (A)
                 (A) (A) (A) (A) (A) (A) (A) (A) (A) (A) (A) (A)
                 (A) (A) (A) (A) (A) (A) (A) (A) (A) (A) (A) (A)
                 (A) (A) (A) (A) (A) (A) (A) (A) (A) (A) (A) (A)
                 (A) (A) (A) (A) (A) (A) (A) (A) (A) (A) (A) (A)
                 (A) (A) (A) (A) (A) (A) (A) (A) (A) (A) (A) (A)
                 (A) (A) (A) (A) (A) (A) (A) (A) (A) (A) (A) (A)
                 (A) (A) (A) (A) (A) (A) (A) (A) (A) (A) (A) (A)
                 (A) (A) (A) (A) (A) (A) (A) (A) (A) (A) (A) (A)
                 (A) (A) (A) (A) (A) (A) (A) (A) (A) (A) (A) (A)
                 (A) (A) (A) (A) (A) (A) (A) (A) (A) (A) (A) (A)
                 (A) (A) (A) (A) (A) (A) (A) (A) (A) (A) (A) (A)
                 (A) (A) (A) (A) (A) (A) (A) (A) (A) (A) (A) (A)
                 (A) (A) (A) (A) (A) (A) (A) (A) (A) (A) (A) (A)
                 (A) (A) (A) (A) (A) (A) (A) (A) (A) (A) (A) (A)
                 (A) (A) (A) (A) (A) (A) (A) (A) (A) (A) (A) (A)
                 (A) (A) (A) (A) (A) (A) (A) (A) (A) (A) (A) (A)
                 (A) (A) (A) (A) (A) (A) (A) (A) (A) (A) (A) (A)
                 (A) (A) (A) (A) (A) (A) (A) (A) (A) (A) (A) (A)
                 (A) (A) (A) (A) (A) (A) (A) (A) (A) (A) (A) (A)
                 (A) (A) (A) (A) (A) (A) (A) (A) (A) (A) (A) (A)
                 (A) (A) (A) (A) (A) (A) (A) (A) (A) (A) (A) (A)
                 (A) (A) (A) (A) (A) (A) (A) (A) (A) (A) (A) (A)
                 (A) (A) (A) (A) (A) (A) (A) (A) (A) (A) (A) (A)
                 (A) (A) (A) (A) (A) (A) (A) (A) (A) (A) (A) (A)
                 (A) (A) (A) (A) (A) (A) (A) (A) (A) (A) (A) (A)
                 (A) (A) (A) (A) (A) (A) (A) (A) (A) (A) (A) (A)
                 (A) (A) (A) (A) (A) (A) (A) (A) (A) (A) (A) (A)
                 (A) (A) (A) (A) (A) (A) (A) (A) (A) (A) (A) (A)
                 (A) (A) (A) (A) (A) (A) (A) (A) (A) (A) (A) (A)
                 (A) (A) (A) (A) (A) (A) (A) (A) (A) (A) (A) (A)
                 (A) (A) (A) (A) (A) (A) (A) (A) (A) (A) (A) (A)
                 (A) (A) (A) (A) (A) (A) (A) (A) (A) (A) (A) (A)
                 (A) (A) (A) (A) (A) (A) (A) (A) (A) (A) (A) (A)
                 (A) (A) (A) (A) (A) (A) (A) (A) (A) (A) (A) (A)
                 (A) (A) (A) (A) (A) (A) (A) (A) (A) (A) (A) (A)
                 (A) (A) (A) (A) (A) (A) (A) (A) (A) (A) (A) (A)
                 (A) (A) (A) (A) (A) (A) (A) (A) (A) (A) (A) (A)
                 (A) (A) (A) (A) (A) (A) (A) (A) (A) (A) (A) (A)
                 (A) (A) (A) (A) (A) (A) (A) (A) (A) (A) (A) (A)
                 (A) (A) (A) (A) (A) (A) (A) (A) (A) (A) (A) (A)
                 (A) (A) (A) (A) (A) (A) (A) (A) (A) (A) (A) (A)
                 (A) (A) (A) (A) (A) (A) (A) (A) (A) (A) (A) (A)
                 (A) (A) (A) (A) (A) (A) (A) (A) (A) (A) (A) (A)
                 (A) (A) (A) (A) (A) (A) (A) (A) (A) (A) (A) (A)
                 (A) (A) (A) (A) (A) (A) (A) (A) (A) (A) (A) (A)
                 (A) (A) (A) (A) (A) (A) (A) (A) (A) (A) (A) (A)
                 (A) (A) (A) (A) (A) (A) (A) (A) (A) (A) (A) (A)
                 (A) (A) (A) (A) (A) (A) (A) (A) (A) (A) (A) (A)
                 (A) (A) (A) (A) (A) (A) (A) (A) (A) (A) (A) (A)
                 (A) (A) (A) (A) (A) (A) (A) (A) (A) (A) (A) (A)
                 (A) (A) (A) (A) (A) (A) (A) (A) (A) (A) (A) (A)
                 (A) (A) (A) (A) (A) (A) (A) (A) (A) (A) (A) (A)
                 (A) (A) (A) (A) (A) (A) (A) (A) (A) (A) (A) (A)
                 (A) (A) (A) (A) (A) (A) (A) (A) (A) (A) (A) (A)
                 (A) (A) (A) (A) (A) (A) (A) (A) (A) (A) (A) (A)
                 (A) (A) (A) (A) (A) (A) (A) (A) (A) (A) (A) (A)
                 (A) (A) (A) (A) (A) (A) (A) (A) (A) (A) (A) (A)
                 (A) (A) (A) (A) (A) (A) (A) (A) (A) (A) (A) (A)
                 (A) (A) (A) (A) (A) (A) (A) (A) (A) (A) (A) (A)
                 (A) (A) (A) (A) (A) (A) (A) (A) (A) (A) (A) (A)
                 (A) (A) (A) (A) (A) (A) (A) (A) (A) (A) (A) (A)
                 (A) (A) (A) (A) (A) (A) (A) (A) (A) (A) (A) (A)
                 (A) (A) (A) (A) (A) (A) (A) (A) (A) (A) (A) (A)
                 (A) (A) (A) (A) (A) (A) (A) (A) (A) (A) (A) (A)
                 (A) (A) (A) (A) (A) (A) (A) (A) (A) (A) (A) (A)
                 (A) (A) (A) (A) (A) (A) (A) (A) (A) (A) (A) (A)
                 (A) (A) (A) (A) (A) (A) (A) (A) (A) (A) (A) (A)
                 (A) (A) (A) (A) (A) (A) (A) (A) (A) (A) (A) (A)
                 (A) (A) (A) (A) (A) (A) (A) (A) (A) (A) (A) (A)
                 (A) (A) (A) (A) (A) (A) (A) (A) (A) (A) (A) (A)
                 (A) (A) (A) (A) (A) (A) (A) (A) (A) (A) (A) (A)
                 (A) (A) (A) (A) (A) (A) (A) (A) (A) (A) (A) (A)
                 (A) (A) (A) (A) (A) (A) (A) (A) (A) (A) (A) (A)
                 (A) (A) (A) (A) (A) (A) (A) (A) (A) (A) (A) (A)
                 (A) (A) (A) (A) (A) (A) (A) (A) (A) (A) (A) (A)
 The electronic state is 1-A.
 Alpha  occ. eigenvalues -- ******************************-427.56110-414.89169
 Alpha  occ. eigenvalues -- -414.89099-414.88841-149.67034-149.66997-141.94847
 Alpha  occ. eigenvalues -- -141.94839-141.94810-141.94802-141.94777-141.94741
 Alpha  occ. eigenvalues -- -100.56720-100.56700-100.56689-100.56581-100.56559
 Alpha  occ. eigenvalues -- -100.56546 -99.94157 -92.10023 -92.09921 -92.09503
 Alpha  occ. eigenvalues --  -79.05900 -79.05800 -79.05562 -79.05511 -79.05440
 Alpha  occ. eigenvalues --  -76.32572 -76.32514 -28.83415 -28.83371 -25.18050
 Alpha  occ. eigenvalues --  -25.18029 -25.18008 -25.17983 -25.17829 -25.17787
 Alpha  occ. eigenvalues --  -20.85634 -17.72934 -17.72933 -17.72890 -17.72890
 Alpha  occ. eigenvalues --  -17.72799 -17.72786 -17.72758 -17.72748 -17.72743
[...]
 Alpha virt. eigenvalues --    0.94238   0.94572   0.94657   0.94968   0.95084
 Alpha virt. eigenvalues --    0.95220   0.95473   0.95903   0.96264   0.96498
 Alpha virt. eigenvalues --    0.96582   0.96916   0.97132   0.97470   0.97584
 Alpha virt. eigenvalues --    0.98034   0.98117   0.98330   0.98561   0.99076
 Alpha virt. eigenvalues --    0.99484   0.99667   0.99768   1.00228   1.00401
 Alpha virt. eigenvalues --    1.00702   1.00882   1.00936   1.01203   1.01765
 Alpha virt. eigenvalues --    1.02054   1.02411   1.02514   1.03032   1.03076
 Alpha virt. eigenvalues --    1.03477   1.03626   1.03984   1.04058   1.04332
 Alpha virt. eigenvalues --    1.04442   1.04800   1.05035   1.05374   1.05426
 Alpha virt. eigenvalues --    1.05698   1.05996   1.06126   1.06785   1.07089
 Alpha virt. eigenvalues --    1.07305   1.07569   1.07766   1.08044   1.08278
 Alpha virt. eigenvalues --    1.08399   1.08671   1.08716   1.09099   1.09356
 Alpha virt. eigenvalues --    1.09539   1.09663   1.10014   1.10241   1.10512
 Alpha virt. eigenvalues --    1.10723   1.11208   1.11363   1.11570   1.11743
 Alpha virt. eigenvalues --    1.11992   1.12223   1.12692   1.12818   1.13301
 Alpha virt. eigenvalues --    1.13510   1.13708   1.14162   1.14268   1.14402
 Alpha virt. eigenvalues --    1.14525   1.14776   1.15096   1.15245   1.15450
 Alpha virt. eigenvalues --    1.15618   1.15979   1.16318   1.16734   1.16880
 Alpha virt. eigenvalues --    1.17024   1.17374   1.17433   1.17996   1.18091
 Alpha virt. eigenvalues --    1.18582   1.18781   1.19358   1.19716   1.19941
 Alpha virt. eigenvalues --    1.20300   1.20560   1.21238   1.21685   1.21735
 Alpha virt. eigenvalues --    1.21884   1.22322   1.22727   1.22987   1.23134
 Alpha virt. eigenvalues --    1.23610   1.24277   1.24479   1.24990   1.25161
 Alpha virt. eigenvalues --    1.25462   1.26168   1.26363   1.26485   1.27041
 Alpha virt. eigenvalues --    1.27424   1.27657   1.27921   1.28415   1.28660
 Alpha virt. eigenvalues --    1.28747   1.29463   1.29944   1.30528   1.30842
 Alpha virt. eigenvalues --    1.31168   1.31357   1.31914   1.32042   1.32349
 Alpha virt. eigenvalues --    1.33105   1.33293   1.33480   1.34132   1.34300
 Alpha virt. eigenvalues --    1.34411   1.34716   1.34854   1.35311   1.36047
 Alpha virt. eigenvalues --    1.36264   1.36611   1.36947   1.37478   1.37911
 Alpha virt. eigenvalues --    1.38356   1.38726   1.39147   1.39391   1.39594
 Alpha virt. eigenvalues --    1.39826   1.40386   1.40398   1.40996   1.41440
 Alpha virt. eigenvalues --    1.41619   1.42186   1.42838   1.43302   1.43640
 Alpha virt. eigenvalues --    1.43976   1.44216   1.44516   1.45215   1.45362
 Alpha virt. eigenvalues --    1.45651   1.46169   1.46372   1.46588   1.47079
 Alpha virt. eigenvalues --    1.47680   1.48065   1.48889   1.49378   1.49439
 Alpha virt. eigenvalues --    1.50001   1.50250   1.50950   1.51072   1.51433
 Alpha virt. eigenvalues --    1.51925   1.52113   1.52380   1.52672   1.53139
 Alpha virt. eigenvalues --    1.53286   1.54137   1.54308   1.54422   1.55180
 Alpha virt. eigenvalues --    1.55955   1.56180   1.56325   1.56584   1.57036
 Alpha virt. eigenvalues --    1.57587   1.58189   1.58638   1.59580   1.60387
 Alpha virt. eigenvalues --    1.60732   1.61803   1.62192   1.63046   1.63187
 Alpha virt. eigenvalues --    1.63579   1.63951   1.64644   1.64764   1.64880
 Alpha virt. eigenvalues --    1.65456   1.65930   1.66372   1.66469   1.67002
 Alpha virt. eigenvalues --    1.67121   1.67566   1.68095   1.68343   1.68916
 Alpha virt. eigenvalues --    1.69275   1.69731   1.69930   1.70083   1.70699
 Alpha virt. eigenvalues --    1.70986   1.71548   1.71808   1.72150   1.72531
 Alpha virt. eigenvalues --    1.72890   1.73325   1.73589   1.73906   1.74765
 Alpha virt. eigenvalues --    1.75028   1.75290   1.76172   1.76454   1.77049
 Alpha virt. eigenvalues --    1.77805   1.78118   1.78367   1.78623   1.79079
 Alpha virt. eigenvalues --    1.79961   1.80204   1.80844   1.81021   1.82530
 Alpha virt. eigenvalues --    1.83051   1.83385   1.83685   1.84366   1.84770
 Alpha virt. eigenvalues --    1.85763   1.85796   1.86196   1.86749   1.87149
 Alpha virt. eigenvalues --    1.87644   1.88490   1.88906   1.89464   1.89715
 Alpha virt. eigenvalues --    1.89940   1.90249   1.90671   1.91243   1.91498
 Alpha virt. eigenvalues --    1.91942   1.92336   1.92551   1.92929   1.93037
 Alpha virt. eigenvalues --    1.93414   1.93786   1.94605   1.94773   1.95322
 Alpha virt. eigenvalues --    1.95719   1.95851   1.96141   1.96597   1.96918
 Alpha virt. eigenvalues --    1.97395   1.97516   1.97852   1.98016   1.98283
 Alpha virt. eigenvalues --    1.98991   1.99176   1.99588   1.99949   2.00364
 Alpha virt. eigenvalues --    2.00639   2.00900   2.01343   2.01417   2.01588
 Alpha virt. eigenvalues --    2.02131   2.02556   2.03007   2.03387   2.03592
 Alpha virt. eigenvalues --    2.03948   2.04415   2.04788   2.05728   2.05781
 Alpha virt. eigenvalues --    2.06139   2.06339   2.06483   2.07014   2.07466
 Alpha virt. eigenvalues --    2.08182   2.08677   2.08942   2.09411   2.10267
 Alpha virt. eigenvalues --    2.10646   2.10817   2.11344   2.11760   2.12780
 Alpha virt. eigenvalues --    2.12957   2.13522   2.13965   2.14327   2.14872
 Alpha virt. eigenvalues --    2.15121   2.15291   2.15816   2.15995   2.16681
 Alpha virt. eigenvalues --    2.16920   2.17296   2.17782   2.17860   2.18157
 Alpha virt. eigenvalues --    2.18627   2.19555   2.19978   2.20354   2.20507
 Alpha virt. eigenvalues --    2.21041   2.21340   2.22927   2.23223   2.23554
 Alpha virt. eigenvalues --    2.24283   2.24716   2.25493   2.26091   2.26578
 Alpha virt. eigenvalues --    2.26886   2.27051   2.27634   2.27997   2.28395
 Alpha virt. eigenvalues --    2.28965   2.29183   2.29547   2.29786   2.30363
 Alpha virt. eigenvalues --    2.30867   2.31001   2.31526   2.31601   2.32264
 Alpha virt. eigenvalues --    2.32979   2.33365   2.33956   2.34459   2.35073
 Alpha virt. eigenvalues --    2.35329   2.35696   2.36377   2.37073   2.37438
 Alpha virt. eigenvalues --    2.37486   2.37810   2.37924   2.38588   2.39109
 Alpha virt. eigenvalues --    2.39845   2.40211   2.40755   2.41238   2.42154
 Alpha virt. eigenvalues --    2.42623   2.43218   2.44185   2.44446   2.44999
 Alpha virt. eigenvalues --    2.45277   2.45804   2.46093   2.46223   2.46809
 Alpha virt. eigenvalues --    2.47443   2.47598   2.48092   2.48743   2.49870
 Alpha virt. eigenvalues --    2.50128   2.50932   2.51273   2.51563   2.52505
 Alpha virt. eigenvalues --    2.53075   2.53547   2.54402   2.55354   2.55939
 Alpha virt. eigenvalues --    2.56369   2.56563   2.57242   2.58318   2.58479
 Alpha virt. eigenvalues --    2.59087   2.59303   2.60866   2.61232   2.61801
 Alpha virt. eigenvalues --    2.63144   2.64070   2.64230   2.64942   2.65362
 Alpha virt. eigenvalues --    2.65716   2.66274   2.66501   2.67849   2.68057
 Alpha virt. eigenvalues --    2.68270   2.68983   2.69693   2.69924   2.70474
 Alpha virt. eigenvalues --    2.70665   2.71875   2.72947   2.74023   2.75740
 Alpha virt. eigenvalues --    2.75806   2.76052   2.76644   2.77280   2.77849
 Alpha virt. eigenvalues --    2.79388   2.80991   2.81827   2.82107   2.83382
 Alpha virt. eigenvalues --    2.83878   2.84038   2.84473   2.84828   2.86024
 Alpha virt. eigenvalues --    2.86189   2.86574   2.89189   2.89523   2.89869
 Alpha virt. eigenvalues --    2.91661   2.93857   2.94463   2.95435   2.95572
 Alpha virt. eigenvalues --    2.96829   2.97600   2.99497   3.01088   3.02375
 Alpha virt. eigenvalues --    3.02502   3.03282   3.03838   3.04635   3.05217
 Alpha virt. eigenvalues --    3.06274   3.07483   3.08273   3.09097   3.09822
 Alpha virt. eigenvalues --    3.10178   3.10604   3.11731   3.11904   3.13327
 Alpha virt. eigenvalues --    3.14255   3.14817   3.15033   3.15669   3.15826
 Alpha virt. eigenvalues --    3.16301   3.17312   3.17665   3.17859   3.17998
 Alpha virt. eigenvalues --    3.18776   3.19669   3.19920   3.20444   3.20895
 Alpha virt. eigenvalues --    3.21518   3.23252   3.24208   3.25730   3.26439
 Alpha virt. eigenvalues --    3.26671   3.29262   3.30728   3.32022   3.34218
 Alpha virt. eigenvalues --    3.34594   3.34951   3.35938   3.36979   3.37907
 Alpha virt. eigenvalues --    3.43061   3.44675   3.45156   3.46545   3.49578
 Alpha virt. eigenvalues --    3.52313   3.52414   3.53264   3.55228   3.58061
 Alpha virt. eigenvalues --    3.62786   3.64310   3.70895   3.72178   3.76427
 Alpha virt. eigenvalues --    3.86057   3.89754   3.92578   3.94335   4.02337
 Alpha virt. eigenvalues --    4.10459   4.14088   4.19148   4.20735   4.21410
 Alpha virt. eigenvalues --    4.23565   4.24977   4.25185   4.26879   4.28417
 Alpha virt. eigenvalues --    4.29473   4.31439   4.32277   4.35203   4.36452
 Alpha virt. eigenvalues --    4.36773   4.38752   4.39710   4.40005   4.40303
 Alpha virt. eigenvalues --    4.41363   4.41643   4.45897   4.48755   4.50953
 Alpha virt. eigenvalues --    4.53187   4.73079   4.73590   4.81539   4.81693
 Alpha virt. eigenvalues --    5.46078   5.48553   5.54326   5.63375   5.63769
 Alpha virt. eigenvalues --    5.69683   5.75116   5.90141   6.08389   6.61802
 Alpha virt. eigenvalues --    6.63555   6.68683   6.70024   6.70862   6.71421
 Alpha virt. eigenvalues --    6.74881   6.75530   6.77011   6.77405   6.78137
 Alpha virt. eigenvalues --    6.78876   6.79096   6.80488   6.81975   6.82213
 Alpha virt. eigenvalues --    6.83191   6.83765   6.84523   6.85270   6.85666
 Alpha virt. eigenvalues --    6.87092   6.89691   6.90972   6.91981   6.92138
 Alpha virt. eigenvalues --    6.93331   6.94028   6.94516   6.95230   6.97014
 Alpha virt. eigenvalues --    6.99008   7.00523   7.01230   7.03140   7.06452
 Alpha virt. eigenvalues --    7.07978   7.09243   7.23358   7.24954   7.62288
 Alpha virt. eigenvalues --    7.65369   7.65935   7.66651   7.75085   7.78154
 Alpha virt. eigenvalues --    8.46060   8.46944   8.47053   8.47725   8.49453
 Alpha virt. eigenvalues --    8.50056   8.50655   8.55696   8.61323   8.95057
 Alpha virt. eigenvalues --    9.82839   9.83346   9.83920   9.84574   9.85468
 Alpha virt. eigenvalues --    9.86140   9.86860   9.88863   9.89978   9.90582
 Alpha virt. eigenvalues --    9.91375   9.91742   9.92222   9.97285   9.98708
 Alpha virt. eigenvalues --    9.99878  10.03168  10.03574  10.04588  10.05370
 Alpha virt. eigenvalues --   10.06538  10.10470  10.25383  14.01984  14.14180
 Alpha virt. eigenvalues --   15.58747  15.63622  16.71379  16.74297  16.79927
 Alpha virt. eigenvalues --   16.81472  16.90608  16.93598  17.02477  17.03920
 Alpha virt. eigenvalues --   17.04035  17.05018  17.05669  17.06572  17.07691
 Alpha virt. eigenvalues --   17.10445  17.11782  17.12935  17.14029  17.14740
 Alpha virt. eigenvalues --   17.17257  17.18213  17.19632  17.21886  17.22634
 Alpha virt. eigenvalues --   17.24062  17.24840  17.27764  17.28354  17.31412
 Alpha virt. eigenvalues --   17.34867  17.35022  17.37817  17.39073  20.98210
 Alpha virt. eigenvalues --   21.12914  21.29556  25.45256  25.46617  25.51008
 Alpha virt. eigenvalues --   25.57045  25.57869  25.62807  26.11820  31.64373
 Alpha virt. eigenvalues --   31.65895  31.69359  31.69908  31.71786  31.72942
 Alpha virt. eigenvalues --   31.74103  31.75389  31.79201  31.79840  42.90752
 Alpha virt. eigenvalues --   42.97230  42.99702  43.03834  43.14844  61.74087
 Alpha virt. eigenvalues --   61.84836  62.95732  62.99949  78.03906  78.06377
 Alpha virt. eigenvalues --   78.11322  78.12682  78.20767  78.23536  82.16051
 Alpha virt. eigenvalues --   86.10655  86.23129  86.36033  89.28544  89.29190
 Alpha virt. eigenvalues --   89.30317  89.30912  89.32690  89.32926  89.33578
 Alpha virt. eigenvalues --   89.34657  89.37702  89.38632  89.40397  89.40462
 Alpha virt. eigenvalues --   89.43087  89.43917  89.45565  89.48083  89.48339
 Alpha virt. eigenvalues --   89.49665  89.51127  89.52573  89.54040  89.55823
 Alpha virt. eigenvalues --   89.62800  89.63038  89.65736  89.66956 121.80646
 Alpha virt. eigenvalues --  121.81536 121.84662 121.88977 121.89486 121.93469
 Alpha virt. eigenvalues --  239.13939 239.17662 257.26970 332.06623 332.17923
 Alpha virt. eigenvalues --  428.71322 428.81213 428.91138 431.65483 431.68080
 Alpha virt. eigenvalues --  431.73366 431.74734 431.83279 431.86174 590.18125
 Alpha virt. eigenvalues --  590.18805 590.21184 590.24571 590.24968 590.28008
 Alpha virt. eigenvalues --  772.94764 839.54187 839.575102068.549152529.92069
 Alpha virt. eigenvalues -- 2529.950515495.35081******************************
 Alpha virt. eigenvalues -- **********
          Condensed to atoms (all electrons):
 Mulliken charges:
               1
     1  P   -1.007022
     2  P   -0.633198
     3  C    0.404165
     4  C   -0.429675
     5  C   -0.481923
     6  C    0.435121
     7  C   -0.085007
     8  C   -0.129729
     9  C    0.257044
    10  C   -0.615687
    11  C   -0.268000
    12  C    0.034274
    13  C   -0.115509
    14  C   -0.061406
    15  H    0.081909
    16  H    0.102876
    17  H    0.128534
    18  H    0.137309
    19  H    0.121594
    20  H    0.143035
    21  H    0.140551
    22  H    0.128937
    23  H    0.107108
    24  H    0.098943
    25  H    0.132898
    26  H    0.142390
    27  H    0.131281
    28  H    0.146704
    29  H    0.126231
    30  Pt   0.961384
    31  Sn   0.309978
    32  Cl  -0.153164
    33  Cl  -0.209026
    34  Cl  -0.225157
    35  Sn   0.256151
    36  Cl  -0.203385
    37  Cl  -0.166559
    38  Cl  -0.231462
    39  C    0.185634
    40  H    0.064912
    41  H    0.121252
    42  C    0.307881
    43  H    0.069312
    44  H    0.067668
    45  C   -0.362624
    46  C   -0.024957
    47  C   -0.056098
    48  C    0.053142
    49  H    0.103594
    50  C   -0.138998
    51  H    0.114818
    52  C   -0.378193
    53  H    0.143786
    54  H    0.149076
    55  H    0.156367
    56  H    0.121331
    57  C   -0.437355
    58  C   -0.008283
    59  C    0.053156
    60  C   -0.148549
    61  H    0.120164
    62  C   -0.038594
    63  H    0.117410
    64  C   -0.333397
    65  H    0.152930
    66  H    0.149825
    67  H    0.162288
 Sum of Mulliken charges =   0.00000
 Mulliken charges with hydrogens summed into heavy atoms:
               1
     1  P   -1.007022
     2  P   -0.633198
     3  C    0.486074
     4  C   -0.429675
     5  C   -0.481923
     6  C    0.537996
     7  C    0.302429
     8  C    0.282793
     9  C    0.364152
    10  C   -0.615687
    11  C   -0.268000
    12  C    0.133216
    13  C    0.291060
    14  C    0.332860
    30  Pt   0.961384
    31  Sn   0.309978
    32  Cl  -0.153164
    33  Cl  -0.209026
    34  Cl  -0.225157
    35  Sn   0.256151
    36  Cl  -0.203385
    37  Cl  -0.166559
    38  Cl  -0.231462
    39  C    0.371799
    42  C    0.444861
    45  C   -0.362624
    46  C    0.078636
    47  C    0.058720
    48  C    0.196927
    50  C    0.010078
    52  C   -0.221826
    57  C   -0.437355
    58  C    0.111881
    59  C    0.170566
    60  C    0.004381
    62  C    0.111231
    64  C   -0.171109
 Electronic spatial extent (au):  <R**2>=          28579.5889
 Charge=              0.0000 electrons
 Dipole moment (field-independent basis, Debye):
    X=             -0.0829    Y=              0.7181    Z=              2.0599  Tot=              2.1830
 Quadrupole moment (field-independent basis, Debye-Ang):
   XX=           -289.9415   YY=           -402.7508   ZZ=           -320.7628
   XY=            -15.3751   XZ=             29.6700   YZ=             15.0420
 Traceless Quadrupole moment (field-independent basis, Debye-Ang):
   XX=             47.8769   YY=            -64.9325   ZZ=             17.0556
   XY=            -15.3751   XZ=             29.6700   YZ=             15.0420
 Octapole moment (field-independent basis, Debye-Ang**2):
  XXX=             -7.3296  YYY=             38.2902  ZZZ=             15.8220  XYY=            -10.5465
  XXY=            -31.0582  XXZ=            -57.3825  XZZ=            -22.1158  YZZ=              5.5680
  YYZ=             30.8029  XYZ=            -10.4530
 Hexadecapole moment (field-independent basis, Debye-Ang**3):
 XXXX=         -16491.7166 YYYY=         -12370.8717 ZZZZ=          -7589.1796 XXXY=            235.2862
 XXXZ=            556.6018 YYYX=             95.9872 YYYZ=             19.9159 ZZZX=            322.0700
 ZZZY=            -24.1446 XXYY=          -5087.1799 XXZZ=          -3994.1360 YYZZ=          -3395.8145
 XXYZ=            -56.8721 YYXZ=            136.2503 ZZXY=            105.1687
 N-N= 1.363701448672D+04 E-N=-1.065817571563D+05  KE= 3.301957027235D+04
 Calculating spin-rotation constants.
 Leave Link  601 at Sat Aug 24 20:42:27 2019, MaxMem=   939524096 cpu:       555.5
 (Enter /scr/programas/g09/l9999.exe)
 1\1\GINC-NQTCM\SP\RPBEPBE\Gen\C26H30Cl6P2Pt1Sn2\NQTCM\24-Aug-2019\0\\#
 PBEPBE/gen scf=(maxcycle=500,conver=4) NMR=GIAO Scrf=(solvent=Dichloro
 methane)\\estrutura 63\\0,1\P,0,1.987818,-0.580344,0.332232\P,0,-2.562
 143,0.623136,-0.545668\C,0,3.172827,0.773348,0.510439\C,0,3.679464,0.7
 87705,1.765626\C,0,3.198468,-0.340115,2.625657\C,0,2.334517,-1.177534,
 2.002096\C,0,4.653201,1.809565,2.274229\C,0,3.646976,-0.483302,4.04868
 2\C,0,-2.87303,0.915357,-2.300923\C,0,-3.806755,0.048153,-2.761943\C,0
 ,-4.373928,-0.847181,-1.707727\C,0,-3.840371,-0.656258,-0.478168\C,0,-
 4.270017,-0.031856,-4.186182\C,0,-5.425191,-1.864708,-2.030058\H,0,3.4
 25564,1.478493,-0.2795\H,0,1.866364,-2.056159,2.443654\H,0,4.450756,2.
 076344,3.323023\H,0,5.685455,1.418211,2.233303\H,0,4.612218,2.726207,1
 .669211\H,0,4.745698,-0.425284,4.131098\H,0,3.239292,0.33614,4.667419\
 H,0,3.309181,-1.437749,4.479901\H,0,-2.340698,1.654376,-2.899164\H,0,-
 4.113708,-1.217397,0.414791\H,0,-4.31499,-1.073052,-4.53432\H,0,-5.286
 255,0.380293,-4.286877\H,0,-3.606578,0.52862,-4.855731\H,0,-6.303718,-
 1.395575,-2.503455\H,0,-5.032362,-2.6108,-2.742059\Pt,0,-0.297935,0.01
 5461,-0.085549\Sn,0,-1.08001,-2.500998,0.355488\Cl,0,0.545262,-4.16313
 1,1.076862\Cl,0,-1.919424,-3.678539,-1.580138\Cl,0,-2.76805,-2.980327,
 2.028659\Sn,0,0.510693,2.439248,-0.84179\Cl,0,1.452795,3.975471,0.7678
 61\Cl,0,-1.038153,3.98485,-1.903328\Cl,0,2.20828,2.420296,-2.575845\C,
 0,-3.216032,2.071916,0.436296\H,0,-2.809056,2.97472,-0.041496\H,0,-4.3
 04243,2.066302,0.255779\C,0,2.620974,-1.797601,-0.945321\H,0,2.290652,
 -2.780455,-0.579243\H,0,2.060119,-1.581368,-1.865365\C,0,-2.893306,2.0
 54873,1.915653\C,0,-3.264594,0.980902,2.743114\C,0,-2.231937,3.149913,
 2.497156\C,0,-2.981974,1.001742,4.110725\H,0,-3.783546,0.114043,2.3229
 8\C,0,-1.956182,3.176219,3.868884\H,0,-1.93261,3.994821,1.871186\C,0,-
 2.329181,2.101886,4.680532\H,0,-3.274868,0.153013,4.732766\H,0,-1.4475
 13,4.042748,4.301607\H,0,-2.114566,2.121088,5.751362\H,0,-5.753941,-2.
 396578,-1.126927\C,0,4.10641,-1.75936,-1.196264\C,0,4.60657,-1.11005,-
 2.337028\C,0,5.015619,-2.370734,-0.313698\C,0,5.981545,-1.073429,-2.59
 1865\H,0,3.91087,-0.629229,-3.030807\C,0,6.391091,-2.322968,-0.563438\
 H,0,4.644823,-2.889078,0.575109\C,0,6.877618,-1.673365,-1.703316\H,0,6
 .351159,-0.574008,-3.489897\H,0,7.086772,-2.79904,0.133376\H,0,7.95059
 9,-1.635272,-1.900444\\Version=EM64L-G09RevD.01\State=1-A\HF=-33521.44
 79913\RMSD=3.337e-05\Dipole=-0.0326141,0.2825187,0.8104178\Quadrupole=
 35.5952755,-48.2756942,12.6804187,-11.4309738,22.0589193,11.1833456\PG
 =C01 [X(C26H30Cl6P2Pt1Sn2)]\\@


      LET US REMEMBER, PLEASE, THAT THE SEARCH FOR THE CONSTITUTION
      OF THE WORLD IS ONE OF THE GREATEST AND NOBLEST PROBLEMS PRESENTED 
      BY NATURE.

                                                  -- GALILEO
 Job cpu time:       1 days  4 hours  1 minutes 28.7 seconds.
 File lengths (MBytes):  RWF=   1819 Int=      0 D2E=      0 Chk=    131 Scr=      1
 Normal termination of Gaussian 09 at Sat Aug 24 20:42:27 2019.
