 Entering Gaussian System, Link 0=g09
 Input=estrutura45.com
 Output=estrutura45.log
 Initial command:
 /home/scr/programs/g09/l1.exe /home/scr/guest1/Gau-24303.inp -scrdir=/home/scr/guest1/
 Entering Link 1 = /home/scr/programs/g09/l1.exe PID=     24304.
  
 Copyright (c) 1988,1990,1992,1993,1995,1998,2003,2009, Gaussian, Inc.
                  All Rights Reserved.
  
 This is part of the Gaussian(R) 09 program.  It is based on
 the Gaussian(R) 03 system (copyright 2003, Gaussian, Inc.),
 the Gaussian(R) 98 system (copyright 1998, Gaussian, Inc.),
 the Gaussian(R) 94 system (copyright 1995, Gaussian, Inc.),
 the Gaussian 92(TM) system (copyright 1992, Gaussian, Inc.),
 the Gaussian 90(TM) system (copyright 1990, Gaussian, Inc.),
 the Gaussian 88(TM) system (copyright 1988, Gaussian, Inc.),
 the Gaussian 86(TM) system (copyright 1986, Carnegie Mellon
 University), and the Gaussian 82(TM) system (copyright 1983,
 Carnegie Mellon University). Gaussian is a federally registered
 trademark of Gaussian, Inc.
  
 This software contains proprietary and confidential information,
 including trade secrets, belonging to Gaussian, Inc.
  
 This software is provided under written license and may be
 used, copied, transmitted, or stored only in accord with that
 written license.
  
 The following legend is applicable only to US Government
 contracts under FAR:
  
                    RESTRICTED RIGHTS LEGEND
  
 Use, reproduction and disclosure by the US Government is
 subject to restrictions as set forth in subparagraphs (a)
 and (c) of the Commercial Computer Software - Restricted
 Rights clause in FAR 52.227-19.
  
 Gaussian, Inc.
 340 Quinnipiac St., Bldg. 40, Wallingford CT 06492
  
  
 ---------------------------------------------------------------
 Warning -- This program may not be used in any manner that
 competes with the business of Gaussian, Inc. or will provide
 assistance to any competitor of Gaussian, Inc.  The licensee
 of this program is prohibited from giving any competitor of
 Gaussian, Inc. access to this program.  By using this program,
 the user acknowledges that Gaussian, Inc. is engaged in the
 business of creating and licensing software in the field of
 computational chemistry and represents and warrants to the
 licensee that it is not a competitor of Gaussian, Inc. and that
 it will not use this program in any manner prohibited above.
 ---------------------------------------------------------------
  

 Cite this work as:
 Gaussian 09, Revision A.02,
 M. J. Frisch, G. W. Trucks, H. B. Schlegel, G. E. Scuseria, 
 M. A. Robb, J. R. Cheeseman, G. Scalmani, V. Barone, B. Mennucci, 
 G. A. Petersson, H. Nakatsuji, M. Caricato, X. Li, H. P. Hratchian, 
 A. F. Izmaylov, J. Bloino, G. Zheng, J. L. Sonnenberg, M. Hada, 
 M. Ehara, K. Toyota, R. Fukuda, J. Hasegawa, M. Ishida, T. Nakajima, 
 Y. Honda, O. Kitao, H. Nakai, T. Vreven, J. A. Montgomery, Jr., 
 J. E. Peralta, F. Ogliaro, M. Bearpark, J. J. Heyd, E. Brothers, 
 K. N. Kudin, V. N. Staroverov, R. Kobayashi, J. Normand, 
 K. Raghavachari, A. Rendell, J. C. Burant, S. S. Iyengar, J. Tomasi, 
 M. Cossi, N. Rega, J. M. Millam, M. Klene, J. E. Knox, J. B. Cross, 
 V. Bakken, C. Adamo, J. Jaramillo, R. Gomperts, R. E. Stratmann, 
 O. Yazyev, A. J. Austin, R. Cammi, C. Pomelli, J. W. Ochterski, 
 R. L. Martin, K. Morokuma, V. G. Zakrzewski, G. A. Voth, 
 P. Salvador, J. J. Dannenberg, S. Dapprich, A. D. Daniels, 
 O. Farkas, J. B. Foresman, J. V. Ortiz, J. Cioslowski, 
 and D. J. Fox, Gaussian, Inc., Wallingford CT, 2009.
 
 ******************************************
 Gaussian 09:  EM64L-G09RevA.02 11-Jun-2009
                15-Jun-2019 
 ******************************************
 %mem=100Gb
 %nproc=32
 Will use up to   32 processors via shared memory.
 ----------------------------------------------------------------------
 #PBEPBE/gen scf=(maxcycle=500,conver=4) NMR=GIAO Scrf=(solvent=Dichlor
 omethane)
 ----------------------------------------------------------------------
 1/38=1/1;
 2/12=2,17=6,18=5,40=1/2;
 3/5=7,11=2,16=1,25=1,30=1,70=2201,72=9,74=1009/1,2,8,3;
 4//1;
 5/5=2,6=4,7=500,38=5,53=9/2;
 8/6=1,10=90,11=11/1;
 10/13=100,45=16/2;
 6/7=2,8=2,9=2,10=2,28=1/1;
 99/9=1/99;
 Leave Link    1 at Sat Jun 15 01:50:06 2019, MaxMem=13421772800 cpu:       2.8
 (Enter /home/scr/programs/g09/l101.exe)
 ------------
 estrutura 45
 ------------
 Symbolic Z-matrix:
 Charge =  0 Multiplicity = 1
 Pt                   -1.67725  -0.45273  -0.45785 
 Cl                    0.42199  -1.60641  -1.16339 
 Cl                   -0.43885   1.55295  -1.35884 
 Sn                   -3.57695   1.19205   0.17118 
 Cl                   -4.9756    1.80782  -1.6939 
 Cl                   -2.89518   3.35089   0.97854 
 Cl                   -5.25686   0.72864   1.84223 
 P                    -2.69352  -2.37061   0.28499 
 C                    -4.18585  -2.87625  -0.68301 
 H                    -4.29355  -3.96211  -0.50675 
 H                    -3.89844  -2.75106  -1.73907 
 C                    -5.51535  -2.17096  -0.4049 
 H                    -5.8539   -2.31212   0.63038 
 H                    -5.47868  -1.09141  -0.61168 
 H                    -6.28554  -2.59253  -1.07064 
 C                    -3.15372  -2.33885   2.06794 
 H                    -3.9466   -1.58831   2.19158 
 H                    -3.59324  -3.32708   2.28993 
 C                    -1.97522  -2.03847   3.0033 
 H                    -1.16862  -2.78008   2.91513 
 H                    -1.54681  -1.04605   2.79261 
 H                    -2.31926  -2.04294   4.05008 
 C                    -1.57858  -3.85024   0.16176 
 H                    -1.97936  -4.55899   0.90426 
 H                    -0.59079  -3.53293   0.52046 
 C                    -1.46416  -4.52244  -1.20755 
 H                    -0.74036  -5.35195  -1.14319 
 H                    -2.42307  -4.94541  -1.54314 
 H                    -1.10494  -3.82652  -1.98037 
 Pt                    1.69081   0.44954  -0.51301 
 Sn                    3.46129  -1.22436   0.32933 
 Cl                    3.87344  -3.04637  -1.17938 
 Cl                    2.73931  -2.376     2.31666 
 Cl                    5.74911  -0.69005   0.89231 
 P                     2.81722   2.3965   -0.06904 
 C                     3.84223   2.88892  -1.52445 
 H                     4.30137   3.86389  -1.27913 
 H                     3.11166   3.0789   -2.33071 
 C                     4.89421   1.88087  -1.98803 
 H                     5.65836   1.68709  -1.22192 
 H                     4.43545   0.91896  -2.25896 
 H                     5.40369   2.26516  -2.88584 
 C                     1.66143   3.82097   0.14073 
 H                     0.99807   3.80716  -0.73735 
 H                     2.27555   4.73432   0.06201 
 C                     0.84781   3.81656   1.43601 
 H                     0.11322   4.63823   1.41014 
 H                     0.29159   2.87596   1.57163 
 H                     1.48319   3.97308   2.32056 
 C                     3.87268   2.39537   1.44634 
 H                     4.59152   1.56931   1.34866 
 H                     3.19402   2.1178    2.27003 
 C                     4.6068    3.70607   1.75062 
 H                     3.92605   4.5664    1.82304 
 H                     5.13645   3.61701   2.71244 
 H                     5.36322   3.9383    0.98384 
 
 NAtoms=     56 NQM=     56 NQMF=      0 NMic=      0 NMicF=      0 NTot=     56.
                    Isotopes and Nuclear Properties:
 (Nuclear quadrupole moments (NQMom) in fm**2, nuclear magnetic moments (NMagM)
  in nuclear magnetons)

  Atom         1           2           3           4           5           6           7           8           9          10
 IAtWgt=         195          35          35         118          35          35          35          31          12           1
 AtmWgt= 194.9648000  34.9688527  34.9688527 117.9018000  34.9688527  34.9688527  34.9688527  30.9737634  12.0000000   1.0078250
 NucSpn=           1           3           3           0           3           3           3           1           0           1
 AtZEff=   0.0000000   0.0000000   0.0000000   0.0000000   0.0000000   0.0000000   0.0000000   0.0000000   0.0000000   0.0000000
 NQMom=    0.0000000  -8.1650000  -8.1650000   0.0000000  -8.1650000  -8.1650000  -8.1650000   0.0000000   0.0000000   0.0000000
 NMagM=    0.6095000   0.8218740   0.8218740   0.0000000   0.8218740   0.8218740   0.8218740   1.1316000   0.0000000   2.7928460

  Atom        11          12          13          14          15          16          17          18          19          20
 IAtWgt=           1          12           1           1           1          12           1           1          12           1
 AtmWgt=   1.0078250  12.0000000   1.0078250   1.0078250   1.0078250  12.0000000   1.0078250   1.0078250  12.0000000   1.0078250
 NucSpn=           1           0           1           1           1           0           1           1           0           1
 AtZEff=   0.0000000   0.0000000   0.0000000   0.0000000   0.0000000   0.0000000   0.0000000   0.0000000   0.0000000   0.0000000
 NQMom=    0.0000000   0.0000000   0.0000000   0.0000000   0.0000000   0.0000000   0.0000000   0.0000000   0.0000000   0.0000000
 NMagM=    2.7928460   0.0000000   2.7928460   2.7928460   2.7928460   0.0000000   2.7928460   2.7928460   0.0000000   2.7928460

  Atom        21          22          23          24          25          26          27          28          29          30
 IAtWgt=           1           1          12           1           1          12           1           1           1         195
 AtmWgt=   1.0078250   1.0078250  12.0000000   1.0078250   1.0078250  12.0000000   1.0078250   1.0078250   1.0078250 194.9648000
 NucSpn=           1           1           0           1           1           0           1           1           1           1
 AtZEff=   0.0000000   0.0000000   0.0000000   0.0000000   0.0000000   0.0000000   0.0000000   0.0000000   0.0000000   0.0000000
 NQMom=    0.0000000   0.0000000   0.0000000   0.0000000   0.0000000   0.0000000   0.0000000   0.0000000   0.0000000   0.0000000
 NMagM=    2.7928460   2.7928460   0.0000000   2.7928460   2.7928460   0.0000000   2.7928460   2.7928460   2.7928460   0.6095000

  Atom        31          32          33          34          35          36          37          38          39          40
 IAtWgt=         118          35          35          35          31          12           1           1          12           1
 AtmWgt= 117.9018000  34.9688527  34.9688527  34.9688527  30.9737634  12.0000000   1.0078250   1.0078250  12.0000000   1.0078250
 NucSpn=           0           3           3           3           1           0           1           1           0           1
 AtZEff=   0.0000000   0.0000000   0.0000000   0.0000000   0.0000000   0.0000000   0.0000000   0.0000000   0.0000000   0.0000000
 NQMom=    0.0000000  -8.1650000  -8.1650000  -8.1650000   0.0000000   0.0000000   0.0000000   0.0000000   0.0000000   0.0000000
 NMagM=    0.0000000   0.8218740   0.8218740   0.8218740   1.1316000   0.0000000   2.7928460   2.7928460   0.0000000   2.7928460

  Atom        41          42          43          44          45          46          47          48          49          50
 IAtWgt=           1           1          12           1           1          12           1           1           1          12
 AtmWgt=   1.0078250   1.0078250  12.0000000   1.0078250   1.0078250  12.0000000   1.0078250   1.0078250   1.0078250  12.0000000
 NucSpn=           1           1           0           1           1           0           1           1           1           0
 AtZEff=   0.0000000   0.0000000   0.0000000   0.0000000   0.0000000   0.0000000   0.0000000   0.0000000   0.0000000   0.0000000
 NQMom=    0.0000000   0.0000000   0.0000000   0.0000000   0.0000000   0.0000000   0.0000000   0.0000000   0.0000000   0.0000000
 NMagM=    2.7928460   2.7928460   0.0000000   2.7928460   2.7928460   0.0000000   2.7928460   2.7928460   2.7928460   0.0000000

  Atom        51          52          53          54          55          56
 IAtWgt=           1           1          12           1           1           1
 AtmWgt=   1.0078250   1.0078250  12.0000000   1.0078250   1.0078250   1.0078250
 NucSpn=           1           1           0           1           1           1
 AtZEff=   0.0000000   0.0000000   0.0000000   0.0000000   0.0000000   0.0000000
 NQMom=    0.0000000   0.0000000   0.0000000   0.0000000   0.0000000   0.0000000
 NMagM=    2.7928460   2.7928460   0.0000000   2.7928460   2.7928460   2.7928460
 Leave Link  101 at Sat Jun 15 01:50:06 2019, MaxMem=13421772800 cpu:       2.8
 (Enter /home/scr/programs/g09/l202.exe)
 Stoichiometry    C12H30Cl8P2Pt2Sn2
 Framework group  C1[X(C12H30Cl8P2Pt2Sn2)]
 Deg. of freedom   162
 Full point group                 C1      NOp   1
 Largest Abelian subgroup         C1      NOp   1
 Largest concise Abelian subgroup C1      NOp   1
                         Standard orientation:                         
 ---------------------------------------------------------------------
 Center     Atomic      Atomic             Coordinates (Angstroms)
 Number     Number       Type             X           Y           Z
 ---------------------------------------------------------------------
      1         78           0       -1.677246   -0.452733   -0.457851
      2         17           0        0.421992   -1.606408   -1.163395
      3         17           0       -0.438848    1.552952   -1.358839
      4         50           0       -3.576950    1.192051    0.171183
      5         17           0       -4.975599    1.807815   -1.693899
      6         17           0       -2.895175    3.350892    0.978538
      7         17           0       -5.256856    0.728644    1.842227
      8         15           0       -2.693519   -2.370610    0.284990
      9          6           0       -4.185853   -2.876249   -0.683006
     10          1           0       -4.293551   -3.962108   -0.506753
     11          1           0       -3.898443   -2.751063   -1.739073
     12          6           0       -5.515352   -2.170961   -0.404900
     13          1           0       -5.853903   -2.312121    0.630380
     14          1           0       -5.478680   -1.091414   -0.611682
     15          1           0       -6.285543   -2.592530   -1.070637
     16          6           0       -3.153722   -2.338847    2.067936
     17          1           0       -3.946602   -1.588310    2.191582
     18          1           0       -3.593243   -3.327083    2.289930
     19          6           0       -1.975215   -2.038473    3.003299
     20          1           0       -1.168619   -2.780082    2.915132
     21          1           0       -1.546806   -1.046055    2.792609
     22          1           0       -2.319259   -2.042936    4.050083
     23          6           0       -1.578575   -3.850235    0.161764
     24          1           0       -1.979363   -4.558987    0.904258
     25          1           0       -0.590785   -3.532925    0.520462
     26          6           0       -1.464158   -4.522439   -1.207547
     27          1           0       -0.740355   -5.351949   -1.143192
     28          1           0       -2.423069   -4.945407   -1.543141
     29          1           0       -1.104941   -3.826524   -1.980367
     30         78           0        1.690813    0.449540   -0.513011
     31         50           0        3.461289   -1.224362    0.329328
     32         17           0        3.873435   -3.046372   -1.179380
     33         17           0        2.739314   -2.375999    2.316662
     34         17           0        5.749113   -0.690049    0.892312
     35         15           0        2.817218    2.396495   -0.069040
     36          6           0        3.842234    2.888919   -1.524445
     37          1           0        4.301367    3.863893   -1.279126
     38          1           0        3.111656    3.078898   -2.330705
     39          6           0        4.894214    1.880866   -1.988025
     40          1           0        5.658356    1.687087   -1.221917
     41          1           0        4.435450    0.918958   -2.258965
     42          1           0        5.403689    2.265162   -2.885840
     43          6           0        1.661430    3.820970    0.140734
     44          1           0        0.998066    3.807162   -0.737350
     45          1           0        2.275547    4.734318    0.062014
     46          6           0        0.847809    3.816555    1.436006
     47          1           0        0.113217    4.638226    1.410144
     48          1           0        0.291593    2.875958    1.571629
     49          1           0        1.483192    3.973075    2.320555
     50          6           0        3.872681    2.395368    1.446338
     51          1           0        4.591521    1.569306    1.348662
     52          1           0        3.194024    2.117803    2.270029
     53          6           0        4.606800    3.706068    1.750617
     54          1           0        3.926051    4.566397    1.823038
     55          1           0        5.136452    3.617013    2.712437
     56          1           0        5.363219    3.938295    0.983842
 ---------------------------------------------------------------------
 Rotational constants (GHZ):      0.1021811      0.0423211      0.0348531
 Leave Link  202 at Sat Jun 15 01:50:07 2019, MaxMem=13421772800 cpu:       1.6
 (Enter /home/scr/programs/g09/l301.exe)
 General basis read from cards:  (5D, 7F)
 Centers:  10 11 13 14 15 17 18 20 21 22 24 25 27 28 29 37 38 40 41 42
 Centers:  44 45 47 48 49 51 52 54 55 56
 S 5 1.00
     Exponent=  2.8295215633D+02 Coefficients=  4.3000000000D-04
     Exponent=  8.7062201949D+01 Coefficients=  5.1000000000D-04
     Exponent=  2.6788369830D+01 Coefficients=  6.1600000000D-03
     Exponent=  8.2425753324D+00 Coefficients=  1.3030000000D-02
     Exponent=  2.5361770254D+00 Coefficients=  9.9490000000D-02
 S 1 1.00
     Exponent=  7.8036216165D-01 Coefficients=  1.0000000000D+00
 S 1 1.00
     Exponent=  2.4011143435D-01 Coefficients=  1.0000000000D+00
 P 1 1.00
     Exponent=  8.8150000000D-01 Coefficients=  1.0000000000D+00
 P 1 1.00
     Exponent=  1.7989200000D-01 Coefficients=  1.0000000000D+00
 ****
 Centers:   9 12 16 19 23 26 36 39 43 46 50 53
 S 6 1.00
     Exponent=  8.8461235339D+03 Coefficients=  5.3000000000D-04
     Exponent=  2.9487078446D+03 Coefficients=  7.7000000000D-04
     Exponent=  9.8290261488D+02 Coefficients=  4.0500000000D-03
     Exponent=  3.2763420496D+02 Coefficients=  1.4030000000D-02
     Exponent=  1.0921140165D+02 Coefficients=  5.3450000000D-02
     Exponent=  3.6403800551D+01 Coefficients=  1.7027000000D-01
 S 1 1.00
     Exponent=  1.2134600184D+01 Coefficients=  1.0000000000D+00
 S 1 1.00
     Exponent=  4.0448667279D+00 Coefficients=  1.0000000000D+00
 S 1 1.00
     Exponent=  1.3482889093D+00 Coefficients=  1.0000000000D+00
 S 1 1.00
     Exponent=  4.4942963643D-01 Coefficients=  1.0000000000D+00
 S 1 1.00
     Exponent=  1.4980987881D-01 Coefficients=  1.0000000000D+00
 P 4 1.00
     Exponent=  3.7294093393D+01 Coefficients=  3.9600000000D-03
     Exponent=  1.1475105659D+01 Coefficients=  1.8890000000D-02
     Exponent=  3.5308017414D+00 Coefficients=  9.4610000000D-02
     Exponent=  1.0864005358D+00 Coefficients=  3.1889000000D-01
 P 1 1.00
     Exponent=  3.3427708794D-01 Coefficients=  1.0000000000D+00
 P 1 1.00
     Exponent=  1.0285448860D-01 Coefficients=  1.0000000000D+00
 D 1 1.00
     Exponent=  4.7750000000D-01 Coefficients=  1.0000000000D+00
 D 1 1.00
     Exponent=  1.1998000000D-01 Coefficients=  1.0000000000D+00
 ****
 Centers:   8 35
 S 7 1.00
     Exponent=  5.9538004301D+04 Coefficients=  9.5000000000D-04
     Exponent=  2.1650183382D+04 Coefficients=  6.1000000000D-04
     Exponent=  7.8727939572D+03 Coefficients=  3.7500000000D-03
     Exponent=  2.8628341663D+03 Coefficients=  9.6300000000D-03
     Exponent=  1.0410306059D+03 Coefficients=  3.2430000000D-02
     Exponent=  3.7855658397D+02 Coefficients=  9.9500000000D-02
     Exponent=  1.3765693962D+02 Coefficients=  2.6570000000D-01
 S 1 1.00
     Exponent=  5.0057068954D+01 Coefficients=  1.0000000000D+00
 S 1 1.00
     Exponent=  1.8202570529D+01 Coefficients=  1.0000000000D+00
 S 1 1.00
     Exponent=  6.6191165560D+00 Coefficients=  1.0000000000D+00
 S 1 1.00
     Exponent=  2.4069514749D+00 Coefficients=  1.0000000000D+00
 S 1 1.00
     Exponent=  8.7525508178D-01 Coefficients=  1.0000000000D+00
 S 1 1.00
     Exponent=  3.1827457519D-01 Coefficients=  1.0000000000D+00
 S 1 1.00
     Exponent=  1.1573620916D-01 Coefficients=  1.0000000000D+00
 S 1 1.00
     Exponent=  4.2085894240D-02 Coefficients=  1.0000000000D+00
 P 5 1.00
     Exponent=  4.8799672315D+02 Coefficients=  2.1600000000D-03
     Exponent=  1.6266557438D+02 Coefficients=  9.7900000000D-03
     Exponent=  5.4221858128D+01 Coefficients=  5.4850000000D-02
     Exponent=  1.8073952709D+01 Coefficients=  2.1770000000D-01
     Exponent=  6.0246509031D+00 Coefficients=  4.8978000000D-01
 P 1 1.00
     Exponent=  2.0082169677D+00 Coefficients=  1.0000000000D+00
 P 1 1.00
     Exponent=  6.6940565590D-01 Coefficients=  1.0000000000D+00
 P 1 1.00
     Exponent=  2.2313521863D-01 Coefficients=  1.0000000000D+00
 P 1 1.00
     Exponent=  7.4378406211D-02 Coefficients=  1.0000000000D+00
 P 1 1.00
     Exponent=  2.4792802070D-02 Coefficients=  1.0000000000D+00
 D 1 1.00
     Exponent=  3.5395000000D-01 Coefficients=  1.0000000000D+00
 D 1 1.00
     Exponent=  8.9098000000D-02 Coefficients=  1.0000000000D+00
 ****
 Centers:   2  3  5  6  7 32 33 34
 S 7 1.00
     Exponent=  7.7142817164D+04 Coefficients=  1.0600000000D-03
     Exponent=  2.8051933514D+04 Coefficients=  6.4000000000D-04
     Exponent=  1.0200703096D+04 Coefficients=  3.9600000000D-03
     Exponent=  3.7093465804D+03 Coefficients=  9.8300000000D-03
     Exponent=  1.3488533020D+03 Coefficients=  3.2690000000D-02
     Exponent=  4.9049210981D+02 Coefficients=  9.9520000000D-02
     Exponent=  1.7836076720D+02 Coefficients=  2.6555000000D-01
 S 1 1.00
     Exponent=  6.4858460801D+01 Coefficients=  1.0000000000D+00
 S 1 1.00
     Exponent=  2.3584894837D+01 Coefficients=  1.0000000000D+00
 S 1 1.00
     Exponent=  8.5763253951D+00 Coefficients=  1.0000000000D+00
 S 1 1.00
     Exponent=  3.1186637801D+00 Coefficients=  1.0000000000D+00
 S 1 1.00
     Exponent=  1.1340595564D+00 Coefficients=  1.0000000000D+00
 S 1 1.00
     Exponent=  4.1238529323D-01 Coefficients=  1.0000000000D+00
 S 1 1.00
     Exponent=  1.4995828845D-01 Coefficients=  1.0000000000D+00
 S 1 1.00
     Exponent=  5.4530286708D-02 Coefficients=  1.0000000000D+00
 P 5 1.00
     Exponent=  6.9498536057D+02 Coefficients=  2.0000000000D-03
     Exponent=  2.3166178686D+02 Coefficients=  8.9500000000D-03
     Exponent=  7.7220595619D+01 Coefficients=  5.1130000000D-02
     Exponent=  2.5740198540D+01 Coefficients=  2.1011000000D-01
     Exponent=  8.5800661799D+00 Coefficients=  4.9738000000D-01
 P 1 1.00
     Exponent=  2.8600220600D+00 Coefficients=  1.0000000000D+00
 P 1 1.00
     Exponent=  9.5334068665D-01 Coefficients=  1.0000000000D+00
 P 1 1.00
     Exponent=  3.1778022888D-01 Coefficients=  1.0000000000D+00
 P 1 1.00
     Exponent=  1.0592674296D-01 Coefficients=  1.0000000000D+00
 P 1 1.00
     Exponent=  3.5308914320D-02 Coefficients=  1.0000000000D+00
 D 1 1.00
     Exponent=  5.5696000000D-01 Coefficients=  1.0000000000D+00
 D 1 1.00
     Exponent=  1.5619100000D-01 Coefficients=  1.0000000000D+00
 ****
 Centers:   4 31
 S 8 1.00
     Exponent=  7.5448214551D+05 Coefficients=  4.4300000000D-03
     Exponent=  3.3532539800D+05 Coefficients=  1.9800000000D-03
     Exponent=  1.4903351022D+05 Coefficients=  9.0500000000D-03
     Exponent=  6.6237115655D+04 Coefficients=  4.8700000000D-03
     Exponent=  2.9438718069D+04 Coefficients=  2.0770000000D-02
     Exponent=  1.3083874697D+04 Coefficients=  3.2900000000D-02
     Exponent=  5.8150554210D+03 Coefficients=  7.7010000000D-02
     Exponent=  2.5844690760D+03 Coefficients=  1.5160000000D-01
 S 1 1.00
     Exponent=  1.1486529227D+03 Coefficients=  1.0000000000D+00
 S 1 1.00
     Exponent=  5.1051241008D+02 Coefficients=  1.0000000000D+00
 S 1 1.00
     Exponent=  2.2689440448D+02 Coefficients=  1.0000000000D+00
 S 1 1.00
     Exponent=  1.0084195755D+02 Coefficients=  1.0000000000D+00
 S 1 1.00
     Exponent=  4.4818647798D+01 Coefficients=  1.0000000000D+00
 S 1 1.00
     Exponent=  1.9919399021D+01 Coefficients=  1.0000000000D+00
 S 1 1.00
     Exponent=  8.8530662317D+00 Coefficients=  1.0000000000D+00
 S 1 1.00
     Exponent=  3.9346961030D+00 Coefficients=  1.0000000000D+00
 S 1 1.00
     Exponent=  1.7487538235D+00 Coefficients=  1.0000000000D+00
 S 1 1.00
     Exponent=  7.7722392158D-01 Coefficients=  1.0000000000D+00
 S 1 1.00
     Exponent=  3.4543285403D-01 Coefficients=  1.0000000000D+00
 S 1 1.00
     Exponent=  1.5352571290D-01 Coefficients=  1.0000000000D+00
 S 1 1.00
     Exponent=  6.8233650180D-02 Coefficients=  1.0000000000D+00
 S 1 1.00
     Exponent=  1.3478251887D-02 Coefficients=  1.0000000000D+00
 P 5 1.00
     Exponent=  1.0090658304D+04 Coefficients=  2.7500000000D-03
     Exponent=  4.0362633217D+03 Coefficients=  4.1800000000D-03
     Exponent=  1.6145053287D+03 Coefficients=  2.0890000000D-02
     Exponent=  6.4580213147D+02 Coefficients=  7.1370000000D-02
     Exponent=  2.5832085259D+02 Coefficients=  2.2613000000D-01
 P 1 1.00
     Exponent=  1.0332834104D+02 Coefficients=  1.0000000000D+00
 P 1 1.00
     Exponent=  4.1331336414D+01 Coefficients=  1.0000000000D+00
 P 1 1.00
     Exponent=  1.6532534566D+01 Coefficients=  1.0000000000D+00
 P 1 1.00
     Exponent=  6.6130138263D+00 Coefficients=  1.0000000000D+00
 P 1 1.00
     Exponent=  2.6452055305D+00 Coefficients=  1.0000000000D+00
 P 1 1.00
     Exponent=  1.0580822122D+00 Coefficients=  1.0000000000D+00
 P 1 1.00
     Exponent=  4.2323288488D-01 Coefficients=  1.0000000000D+00
 P 1 1.00
     Exponent=  1.6929315395D-01 Coefficients=  1.0000000000D+00
 P 1 1.00
     Exponent=  6.7717261581D-02 Coefficients=  1.0000000000D+00
 P 1 1.00
     Exponent=  2.7086904632D-02 Coefficients=  1.0000000000D+00
 P 1 1.00
     Exponent=  1.0834761853D-02 Coefficients=  1.0000000000D+00
 D 4 1.00
     Exponent=  5.5430250651D+02 Coefficients=  4.3700000000D-03
     Exponent=  2.0156454782D+02 Coefficients=  2.5110000000D-02
     Exponent=  7.3296199207D+01 Coefficients=  1.3316000000D-01
     Exponent=  2.6653163348D+01 Coefficients=  3.8900000000D-01
 D 1 1.00
     Exponent=  9.6920593993D+00 Coefficients=  1.0000000000D+00
 D 1 1.00
     Exponent=  3.5243852361D+00 Coefficients=  1.0000000000D+00
 D 1 1.00
     Exponent=  1.2815946313D+00 Coefficients=  1.0000000000D+00
 D 1 1.00
     Exponent=  4.6603441139D-01 Coefficients=  1.0000000000D+00
 D 1 1.00
     Exponent=  1.6946705869D-01 Coefficients=  1.0000000000D+00
 F 1 1.00
     Exponent=  1.3140000000D+00 Coefficients=  1.0000000000D+00
 F 1 1.00
     Exponent=  1.9993000000D-01 Coefficients=  1.0000000000D+00
 ****
 Centers:   1 30
 S 9 1.00
     Exponent=  2.1644816090D+06 Coefficients=  1.2320000000D-02
     Exponent=  1.0822408045D+06 Coefficients=  1.2970000000D-02
     Exponent=  5.4112040224D+05 Coefficients=  2.6370000000D-02
     Exponent=  2.7056020112D+05 Coefficients=  9.0400000000D-03
     Exponent=  1.3528010056D+05 Coefficients=  3.4980000000D-02
     Exponent=  6.7640050280D+04 Coefficients=  1.2220000000D-02
     Exponent=  3.3820025140D+04 Coefficients=  6.0520000000D-02
     Exponent=  1.6910012570D+04 Coefficients=  6.4930000000D-02
     Exponent=  8.4550062850D+03 Coefficients=  1.3819000000D-01
 S 1 1.00
     Exponent=  4.2275031425D+03 Coefficients=  1.0000000000D+00
 S 1 1.00
     Exponent=  2.1137515713D+03 Coefficients=  1.0000000000D+00
 S 1 1.00
     Exponent=  1.0568757856D+03 Coefficients=  1.0000000000D+00
 S 1 1.00
     Exponent=  5.2843789281D+02 Coefficients=  1.0000000000D+00
 S 1 1.00
     Exponent=  2.6421894641D+02 Coefficients=  1.0000000000D+00
 S 1 1.00
     Exponent=  1.3210947320D+02 Coefficients=  1.0000000000D+00
 S 1 1.00
     Exponent=  6.6054736602D+01 Coefficients=  1.0000000000D+00
 S 1 1.00
     Exponent=  3.3027368301D+01 Coefficients=  1.0000000000D+00
 S 1 1.00
     Exponent=  1.6513684150D+01 Coefficients=  1.0000000000D+00
 S 1 1.00
     Exponent=  8.2568420752D+00 Coefficients=  1.0000000000D+00
 S 1 1.00
     Exponent=  4.1284210376D+00 Coefficients=  1.0000000000D+00
 S 1 1.00
     Exponent=  2.0642105188D+00 Coefficients=  1.0000000000D+00
 S 1 1.00
     Exponent=  1.0321052594D+00 Coefficients=  1.0000000000D+00
 S 1 1.00
     Exponent=  5.1605262970D-01 Coefficients=  1.0000000000D+00
 S 1 1.00
     Exponent=  2.5802631485D-01 Coefficients=  1.0000000000D+00
 S 1 1.00
     Exponent=  1.2901315743D-01 Coefficients=  1.0000000000D+00
 S 1 1.00
     Exponent=  6.4506578713D-02 Coefficients=  1.0000000000D+00
 P 7 1.00
     Exponent=  3.2357915258D+04 Coefficients=  5.0200000000D-03
     Exponent=  1.4381295670D+04 Coefficients=  2.0200000000D-03
     Exponent=  6.3916869645D+03 Coefficients=  1.8070000000D-02
     Exponent=  2.8407497620D+03 Coefficients=  3.6620000000D-02
     Exponent=  1.2625554498D+03 Coefficients=  1.1172000000D-01
     Exponent=  5.6113575545D+02 Coefficients=  2.5586000000D-01
     Exponent=  2.4939366909D+02 Coefficients=  4.2608000000D-01
 P 1 1.00
     Exponent=  1.1084163071D+02 Coefficients=  1.0000000000D+00
 P 1 1.00
     Exponent=  4.9262946981D+01 Coefficients=  1.0000000000D+00
 P 1 1.00
     Exponent=  2.1894643103D+01 Coefficients=  1.0000000000D+00
 P 1 1.00
     Exponent=  9.7309524900D+00 Coefficients=  1.0000000000D+00
 P 1 1.00
     Exponent=  4.3248677733D+00 Coefficients=  1.0000000000D+00
 P 1 1.00
     Exponent=  1.9221634548D+00 Coefficients=  1.0000000000D+00
 P 1 1.00
     Exponent=  8.5429486881D-01 Coefficients=  1.0000000000D+00
 P 1 1.00
     Exponent=  3.7968660836D-01 Coefficients=  1.0000000000D+00
 P 1 1.00
     Exponent=  1.6874960372D-01 Coefficients=  1.0000000000D+00
 P 1 1.00
     Exponent=  7.4999823874D-02 Coefficients=  1.0000000000D+00
 P 1 1.00
     Exponent=  3.3333255055D-02 Coefficients=  1.0000000000D+00
 D 5 1.00
     Exponent=  1.9119003508D+03 Coefficients=  4.3300000000D-03
     Exponent=  7.6476014031D+02 Coefficients=  1.7780000000D-02
     Exponent=  3.0590405613D+02 Coefficients=  8.9710000000D-02
     Exponent=  1.2236162245D+02 Coefficients=  3.1123000000D-01
     Exponent=  4.8944648980D+01 Coefficients=  5.3206000000D-01
 D 1 1.00
     Exponent=  1.9577859592D+01 Coefficients=  1.0000000000D+00
 D 1 1.00
     Exponent=  7.8311438368D+00 Coefficients=  1.0000000000D+00
 D 1 1.00
     Exponent=  3.1324575347D+00 Coefficients=  1.0000000000D+00
 D 1 1.00
     Exponent=  1.2529830139D+00 Coefficients=  1.0000000000D+00
 D 1 1.00
     Exponent=  5.0119320556D-01 Coefficients=  1.0000000000D+00
 D 1 1.00
     Exponent=  2.0047728222D-01 Coefficients=  1.0000000000D+00
 D 1 1.00
     Exponent=  8.0190912889D-02 Coefficients=  1.0000000000D+00
 D 1 1.00
     Exponent=  3.2076365156D-02 Coefficients=  1.0000000000D+00
 F 4 1.00
     Exponent=  8.2289680979D+01 Coefficients=  6.1870000000D-02
     Exponent=  2.9923520356D+01 Coefficients=  2.4823000000D-01
     Exponent=  1.0881280130D+01 Coefficients=  4.9956000000D-01
     Exponent=  3.9568291380D+00 Coefficients=  4.0380000000D-01
 F 1 1.00
     Exponent=  1.4388469593D+00 Coefficients=  1.0000000000D+00
 F 1 1.00
     Exponent=  5.2321707610D-01 Coefficients=  1.0000000000D+00
 G 1 1.00
     Exponent=  2.6700000000D+00 Coefficients=  1.0000000000D+00
 G 1 1.00
     Exponent=  9.0960000000D-01 Coefficients=  1.0000000000D+00
 ****
 Ernie: Thresh=  0.10000D-02 Tol=  0.10000D-05 Strict=F.
 There are  1406 symmetry adapted basis functions of A   symmetry.
 Integral buffers will be    131072 words long.
 Raffenetti 2 integral format.
 Two-electron integral symmetry is turned on.
  1406 basis functions,  2236 primitive gaussians,  1534 cartesian basis functions
   262 alpha electrons      262 beta electrons
       nuclear repulsion energy     15396.5485410541 Hartrees.
 IExCor= 1009 DFT=T Ex=PBE Corr=PBE ExCW=0 ScaHFX=  0.000000
 ScaDFX=  1.000000  1.000000  1.000000  1.000000 ScalE2=  1.000000  1.000000
 IRadAn=      0 IRanWt=     -1 IRanGd=            0 ICorTp=0
 NAtoms=   56 NActive=   56 NUniq=   56 SFac= 7.50D-01 NAtFMM=   80 NAOKFM=F Big=F
 ------------------------------------------------------------------------------
 Polarizable Continuum Model (PCM)
 =================================
 Model                : PCM.
 Atomic radii         : UFF (Universal Force Field).
 Polarization charges : Total charges.
 Charge compensation  : None.
 Solution method      : Matrix inversion.
 Cavity type          : Scaled VdW (van der Waals Surface) (Alpha=1.100).
 Cavity algorithm     : GePol (No added spheres)
                        Default sphere list used, NSphG=   56.
                        Lebedev-Laikov grids with approx.  5.0 points / Ang**2.
                        Smoothing algorithm: Karplus/York (Gamma=1.0000).
                        Polarization charges: spherical gaussians, with
                                              point-specific exponents (IZeta= 3).
                        Self-potential: point-specific (ISelfS= 7).
                        Self-field    : sphere-specific E.n sum rule (ISelfD= 2).
 Solvent              : Dichloromethane, Eps=   8.930000 Eps(inf)=   2.028346
 ------------------------------------------------------------------------------
 GePol: Number of generator spheres                  =      56
 GePol: Total number of spheres                      =      56
 GePol: Number of exposed spheres                    =      56 (100.00%)
 GePol: Number of points                             =    4542
 GePol: Average weight of points                     =       0.15
 GePol: Minimum weight of points                     =   0.24D-10
 GePol: Maximum weight of points                     =    0.21838
 GePol: Number of points with low weight             =     275
 GePol: Fraction of low-weight points (<1% of avg)   =       6.05%
 GePol: Cavity surface area                          =    658.598 Ang**2
 GePol: Cavity volume                                =    764.448 Ang**3
 Leave Link  301 at Sat Jun 15 01:50:07 2019, MaxMem=13421772800 cpu:       4.0
 (Enter /home/scr/programs/g09/l302.exe)
 NPDir=0 NMtPBC=     1 NCelOv=     1 NCel=       1 NClECP=     1 NCelD=      1
         NCelK=      1 NCelE2=     1 NClLst=     1 CellRange=     0.0.
 One-electron integrals computed using PRISM.
 NBasis=  1406 RedAO= T  NBF=  1406
 NBsUse=  1406 1.00D-06 NBFU=  1406
 Precomputing XC quadrature grid using
 IXCGrd= 2 IRadAn=           0 IRanWt=          -1 IRanGd=           0 AccXCQ= 1.00D-10.
 Defaulting to unpruned grid for atomic number  78.
 Defaulting to unpruned grid for atomic number  50.
 Defaulting to unpruned grid for atomic number  78.
 Defaulting to unpruned grid for atomic number  50.
 NRdTot=    3711 NPtTot=      518432 NUsed=      545150 NTot=      545182
 NSgBfM=  1312  1312  1317  1317  1317 NAtAll=    56    56.
 Leave Link  302 at Sat Jun 15 01:50:19 2019, MaxMem=13421772800 cpu:     391.5
 (Enter /home/scr/programs/g09/l308.exe)
 Leave Link  308 at Sat Jun 15 01:50:25 2019, MaxMem=13421772800 cpu:     162.0
 (Enter /home/scr/programs/g09/l303.exe)
 DipDrv:  MaxL=1.
 Leave Link  303 at Sat Jun 15 01:50:27 2019, MaxMem=13421772800 cpu:      72.4
 (Enter /home/scr/programs/g09/l401.exe)
 Harris functional with IExCor= 1009 diagonalized for initial guess.
 ExpMin= 1.08D-02 ExpMax= 2.16D+06 ExpMxC= 2.16D+06 IAcc=4 IRadAn=         0 AccDes= 0.00D+00
 HarFok:  IExCor= 1009 AccDes= 0.00D+00 IRadAn=         0 IDoV= 1
 ScaDFX=  1.000000  1.000000  1.000000  1.000000
 Defaulting to unpruned grid for atomic number  78.
 Defaulting to unpruned grid for atomic number  78.
 Defaulting to unpruned grid for atomic number  78.
 Defaulting to unpruned grid for atomic number  78.
 Defaulting to unpruned grid for atomic number  78.
 Defaulting to unpruned grid for atomic number  78.
 Defaulting to unpruned grid for atomic number  78.
 Defaulting to unpruned grid for atomic number  78.
 Defaulting to unpruned grid for atomic number  78.
 Defaulting to unpruned grid for atomic number  78.
 Defaulting to unpruned grid for atomic number  78.
 Defaulting to unpruned grid for atomic number  78.
 Defaulting to unpruned grid for atomic number  78.
 Defaulting to unpruned grid for atomic number  78.
 Defaulting to unpruned grid for atomic number  78.
 Defaulting to unpruned grid for atomic number  78.
 Defaulting to unpruned grid for atomic number  78.
 Defaulting to unpruned grid for atomic number  78.
 Defaulting to unpruned grid for atomic number  78.
 Defaulting to unpruned grid for atomic number  78.
 Defaulting to unpruned grid for atomic number  78.
 Defaulting to unpruned grid for atomic number  78.
 Defaulting to unpruned grid for atomic number  78.
 Defaulting to unpruned grid for atomic number  78.
 Defaulting to unpruned grid for atomic number  78.
 Defaulting to unpruned grid for atomic number  78.
 Defaulting to unpruned grid for atomic number  78.
 Defaulting to unpruned grid for atomic number  78.
 Defaulting to unpruned grid for atomic number  78.
 Defaulting to unpruned grid for atomic number  78.
 Defaulting to unpruned grid for atomic number  78.
 Defaulting to unpruned grid for atomic number  78.
 FoFCou: FMM=F IPFlag=           0 FMFlag=      100000 FMFlg1=           0
         NFxFlg=           0 DoJE=T BraDBF=F KetDBF=T FulRan=T
         Omega=  0.000000  0.000000  1.000000  0.000000  0.000000 ICntrl=     500 IOpCl=  0
         NMat0=    1 NMatS0=    1 NMatT0=    0 NMatD0=    1 NMtDS0=    0 NMtDT0=    0
         I1Cent=           4 NGrid=           0.
 Petite list used in FoFCou.
 Harris En= -51051.4886865525    
 Initial guess orbital symmetries:
       Occupied  (A) (A) (A) (A) (A) (A) (A) (A) (A) (A) (A) (A)
                 (A) (A) (A) (A) (A) (A) (A) (A) (A) (A) (A) (A)
                 (A) (A) (A) (A) (A) (A) (A) (A) (A) (A) (A) (A)
                 (A) (A) (A) (A) (A) (A) (A) (A) (A) (A) (A) (A)
                 (A) (A) (A) (A) (A) (A) (A) (A) (A) (A) (A) (A)
                 (A) (A) (A) (A) (A) (A) (A) (A) (A) (A) (A) (A)
                 (A) (A) (A) (A) (A) (A) (A) (A) (A) (A) (A) (A)
                 (A) (A) (A) (A) (A) (A) (A) (A) (A) (A) (A) (A)
                 (A) (A) (A) (A) (A) (A) (A) (A) (A) (A) (A) (A)
                 (A) (A) (A) (A) (A) (A) (A) (A) (A) (A) (A) (A)
                 (A) (A) (A) (A) (A) (A) (A) (A) (A) (A) (A) (A)
                 (A) (A) (A) (A) (A) (A) (A) (A) (A) (A) (A) (A)
                 (A) (A) (A) (A) (A) (A) (A) (A) (A) (A) (A) (A)
                 (A) (A) (A) (A) (A) (A) (A) (A) (A) (A) (A) (A)
                 (A) (A) (A) (A) (A) (A) (A) (A) (A) (A) (A) (A)
                 (A) (A) (A) (A) (A) (A) (A) (A) (A) (A) (A) (A)
                 (A) (A) (A) (A) (A) (A) (A) (A) (A) (A) (A) (A)
                 (A) (A) (A) (A) (A) (A) (A) (A) (A) (A) (A) (A)
                 (A) (A) (A) (A) (A) (A) (A) (A) (A) (A) (A) (A)
                 (A) (A) (A) (A) (A) (A) (A) (A) (A) (A) (A) (A)
                 (A) (A) (A) (A) (A) (A) (A) (A) (A) (A) (A) (A)
                 (A) (A) (A) (A) (A) (A) (A) (A) (A) (A)
       Virtual   (A) (A) (A) (A) (A) (A) (A) (A) (A) (A) (A) (A)
                 (A) (A) (A) (A) (A) (A) (A) (A) (A) (A) (A) (A)
                 (A) (A) (A) (A) (A) (A) (A) (A) (A) (A) (A) (A)
                 (A) (A) (A) (A) (A) (A) (A) (A) (A) (A) (A) (A)
                 (A) (A) (A) (A) (A) (A) (A) (A) (A) (A) (A) (A)
                 (A) (A) (A) (A) (A) (A) (A) (A) (A) (A) (A) (A)
                 (A) (A) (A) (A) (A) (A) (A) (A) (A) (A) (A) (A)
                 (A) (A) (A) (A) (A) (A) (A) (A) (A) (A) (A) (A)
                 (A) (A) (A) (A) (A) (A) (A) (A) (A) (A) (A) (A)
                 (A) (A) (A) (A) (A) (A) (A) (A) (A) (A) (A) (A)
                 (A) (A) (A) (A) (A) (A) (A) (A) (A) (A) (A) (A)
                 (A) (A) (A) (A) (A) (A) (A) (A) (A) (A) (A) (A)
                 (A) (A) (A) (A) (A) (A) (A) (A) (A) (A) (A) (A)
                 (A) (A) (A) (A) (A) (A) (A) (A) (A) (A) (A) (A)
                 (A) (A) (A) (A) (A) (A) (A) (A) (A) (A) (A) (A)
                 (A) (A) (A) (A) (A) (A) (A) (A) (A) (A) (A) (A)
                 (A) (A) (A) (A) (A) (A) (A) (A) (A) (A) (A) (A)
                 (A) (A) (A) (A) (A) (A) (A) (A) (A) (A) (A) (A)
                 (A) (A) (A) (A) (A) (A) (A) (A) (A) (A) (A) (A)
                 (A) (A) (A) (A) (A) (A) (A) (A) (A) (A) (A) (A)
                 (A) (A) (A) (A) (A) (A) (A) (A) (A) (A) (A) (A)
                 (A) (A) (A) (A) (A) (A) (A) (A) (A) (A) (A) (A)
                 (A) (A) (A) (A) (A) (A) (A) (A) (A) (A) (A) (A)
                 (A) (A) (A) (A) (A) (A) (A) (A) (A) (A) (A) (A)
                 (A) (A) (A) (A) (A) (A) (A) (A) (A) (A) (A) (A)
                 (A) (A) (A) (A) (A) (A) (A) (A) (A) (A) (A) (A)
                 (A) (A) (A) (A) (A) (A) (A) (A) (A) (A) (A) (A)
                 (A) (A) (A) (A) (A) (A) (A) (A) (A) (A) (A) (A)
                 (A) (A) (A) (A) (A) (A) (A) (A) (A) (A) (A) (A)
                 (A) (A) (A) (A) (A) (A) (A) (A) (A) (A) (A) (A)
                 (A) (A) (A) (A) (A) (A) (A) (A) (A) (A) (A) (A)
                 (A) (A) (A) (A) (A) (A) (A) (A) (A) (A) (A) (A)
                 (A) (A) (A) (A) (A) (A) (A) (A) (A) (A) (A) (A)
                 (A) (A) (A) (A) (A) (A) (A) (A) (A) (A) (A) (A)
                 (A) (A) (A) (A) (A) (A) (A) (A) (A) (A) (A) (A)
                 (A) (A) (A) (A) (A) (A) (A) (A) (A) (A) (A) (A)
                 (A) (A) (A) (A) (A) (A) (A) (A) (A) (A) (A) (A)
                 (A) (A) (A) (A) (A) (A) (A) (A) (A) (A) (A) (A)
                 (A) (A) (A) (A) (A) (A) (A) (A) (A) (A) (A) (A)
                 (A) (A) (A) (A) (A) (A) (A) (A) (A) (A) (A) (A)
                 (A) (A) (A) (A) (A) (A) (A) (A) (A) (A) (A) (A)
                 (A) (A) (A) (A) (A) (A) (A) (A) (A) (A) (A) (A)
                 (A) (A) (A) (A) (A) (A) (A) (A) (A) (A) (A) (A)
                 (A) (A) (A) (A) (A) (A) (A) (A) (A) (A) (A) (A)
                 (A) (A) (A) (A) (A) (A) (A) (A) (A) (A) (A) (A)
                 (A) (A) (A) (A) (A) (A) (A) (A) (A) (A) (A) (A)
                 (A) (A) (A) (A) (A) (A) (A) (A) (A) (A) (A) (A)
                 (A) (A) (A) (A) (A) (A) (A) (A) (A) (A) (A) (A)
                 (A) (A) (A) (A) (A) (A) (A) (A) (A) (A) (A) (A)
                 (A) (A) (A) (A) (A) (A) (A) (A) (A) (A) (A) (A)
                 (A) (A) (A) (A) (A) (A) (A) (A) (A) (A) (A) (A)
                 (A) (A) (A) (A) (A) (A) (A) (A) (A) (A) (A) (A)
                 (A) (A) (A) (A) (A) (A) (A) (A) (A) (A) (A) (A)
                 (A) (A) (A) (A) (A) (A) (A) (A) (A) (A) (A) (A)
                 (A) (A) (A) (A) (A) (A) (A) (A) (A) (A) (A) (A)
                 (A) (A) (A) (A) (A) (A) (A) (A) (A) (A) (A) (A)
                 (A) (A) (A) (A) (A) (A) (A) (A) (A) (A) (A) (A)
                 (A) (A) (A) (A) (A) (A) (A) (A) (A) (A) (A) (A)
                 (A) (A) (A) (A) (A) (A) (A) (A) (A) (A) (A) (A)
                 (A) (A) (A) (A) (A) (A) (A) (A) (A) (A) (A) (A)
                 (A) (A) (A) (A) (A) (A) (A) (A) (A) (A) (A) (A)
                 (A) (A) (A) (A) (A) (A) (A) (A) (A) (A) (A) (A)
                 (A) (A) (A) (A) (A) (A) (A) (A) (A) (A) (A) (A)
                 (A) (A) (A) (A) (A) (A) (A) (A) (A) (A) (A) (A)
                 (A) (A) (A) (A) (A) (A) (A) (A) (A) (A) (A) (A)
                 (A) (A) (A) (A) (A) (A) (A) (A) (A) (A) (A) (A)
                 (A) (A) (A) (A) (A) (A) (A) (A) (A) (A) (A) (A)
                 (A) (A) (A) (A) (A) (A) (A) (A) (A) (A) (A) (A)
                 (A) (A) (A) (A) (A) (A) (A) (A) (A) (A) (A) (A)
                 (A) (A) (A) (A) (A) (A) (A) (A) (A) (A) (A) (A)
                 (A) (A) (A) (A) (A) (A) (A) (A) (A) (A) (A) (A)
                 (A) (A) (A) (A) (A) (A) (A) (A) (A) (A) (A) (A)
                 (A) (A) (A) (A) (A) (A) (A) (A) (A) (A) (A) (A)
                 (A) (A) (A) (A) (A) (A) (A) (A) (A) (A) (A) (A)
                 (A) (A) (A) (A) (A) (A) (A) (A) (A) (A) (A) (A)
                 (A) (A) (A) (A) (A) (A) (A) (A) (A) (A) (A) (A)
                 (A) (A) (A) (A) (A) (A) (A) (A) (A) (A) (A) (A)
                 (A) (A) (A) (A) (A) (A) (A) (A) (A) (A) (A) (A)
                 (A) (A) (A) (A) (A) (A) (A) (A) (A) (A) (A) (A)
                 (A) (A) (A) (A) (A) (A) (A) (A) (A) (A) (A) (A)
                 (A) (A) (A) (A) (A) (A) (A) (A) (A) (A) (A) (A)
                 (A) (A) (A) (A) (A) (A) (A) (A) (A) (A) (A) (A)
                 (A) (A) (A) (A) (A) (A) (A) (A) (A) (A) (A) (A)
                 (A) (A) (A) (A) (A) (A) (A) (A) (A) (A) (A) (A)
                 (A) (A) (A) (A) (A) (A) (A) (A) (A) (A) (A) (A)
                 (A) (A) (A) (A) (A) (A) (A) (A) (A) (A) (A) (A)
                 (A) (A) (A) (A) (A) (A) (A) (A) (A) (A) (A) (A)
                 (A) (A) (A) (A) (A) (A) (A) (A) (A) (A) (A) (A)
                 (A) (A) (A) (A) (A) (A) (A) (A) (A) (A) (A) (A)
                 (A) (A) (A) (A) (A) (A) (A) (A) (A) (A) (A) (A)
                 (A) (A) (A) (A) (A) (A) (A) (A) (A) (A) (A) (A)
                 (A) (A) (A) (A) (A) (A) (A) (A) (A) (A) (A) (A)
                 (A) (A) (A) (A) (A) (A) (A) (A) (A) (A) (A) (A)
                 (A) (A) (A) (A) (A) (A) (A) (A) (A) (A) (A) (A)
                 (A) (A) (A) (A) (A) (A) (A) (A) (A) (A) (A) (A)
                 (A) (A) (A) (A)
 The electronic state of the initial guess is 1-A.
 Leave Link  401 at Sat Jun 15 01:50:46 2019, MaxMem=13421772800 cpu:     587.9
 (Enter /home/scr/programs/g09/l502.exe)
 Closed shell SCF:
 Requested convergence on RMS density matrix=1.00D-04 within 500 cycles.
 Requested convergence on MAX density matrix=1.00D-02.
 Requested convergence on             energy=1.00D-02.
 No special actions if energy rises.
 Using DIIS extrapolation, IDIIS=  1040.
 Integral symmetry usage will be decided dynamically.
       544633 words used for storage of precomputed grid.
 IEnd=     7918143 IEndB=     7918143 NGot= 13421772800 MDV= 13416460348
 LenX= 13416460348 LenY= 13414105658
 Fock matrices will be formed incrementally for  20 cycles.

 Cycle   1  Pass 1  IDiag  1:
 FoFCou: FMM=F IPFlag=           0 FMFlag=      100000 FMFlg1=           0
         NFxFlg=           0 DoJE=T BraDBF=F KetDBF=F FulRan=T
         Omega=  0.000000  0.000000  1.000000  0.000000  0.000000 ICntrl=     500 IOpCl=  0
         NMat0=    1 NMatS0=    1 NMatT0=    0 NMatD0=    1 NMtDS0=    0 NMtDT0=    0
         I1Cent=           0 NGrid=           0.
 Symmetry not used in FoFCou.
 Defaulting to unpruned grid for atomic number  78.
 Defaulting to unpruned grid for atomic number  78.
 Defaulting to unpruned grid for atomic number  78.
 Defaulting to unpruned grid for atomic number  78.
 Defaulting to unpruned grid for atomic number  78.
 Defaulting to unpruned grid for atomic number  78.
 Defaulting to unpruned grid for atomic number  78.
 Defaulting to unpruned grid for atomic number  78.
 Defaulting to unpruned grid for atomic number  78.
 Defaulting to unpruned grid for atomic number  78.
 Defaulting to unpruned grid for atomic number  78.
 Defaulting to unpruned grid for atomic number  78.
 Defaulting to unpruned grid for atomic number  78.
 Defaulting to unpruned grid for atomic number  78.
 Defaulting to unpruned grid for atomic number  78.
 Defaulting to unpruned grid for atomic number  78.
 Defaulting to unpruned grid for atomic number  78.
 Defaulting to unpruned grid for atomic number  78.
 Defaulting to unpruned grid for atomic number  78.
 Defaulting to unpruned grid for atomic number  78.
 Defaulting to unpruned grid for atomic number  78.
 Defaulting to unpruned grid for atomic number  78.
 Defaulting to unpruned grid for atomic number  78.
 Defaulting to unpruned grid for atomic number  78.
 Defaulting to unpruned grid for atomic number  78.
 Defaulting to unpruned grid for atomic number  78.
 Defaulting to unpruned grid for atomic number  78.
 Defaulting to unpruned grid for atomic number  78.
 Defaulting to unpruned grid for atomic number  78.
 Defaulting to unpruned grid for atomic number  78.
 Defaulting to unpruned grid for atomic number  78.
 Defaulting to unpruned grid for atomic number  78.
 E= -51011.3135273012    
 DIIS: error= 2.38D-01 at cycle   1 NSaved=   1.
 NSaved= 1 IEnMin= 1 EnMin= -51011.3135273012     IErMin= 1 ErrMin= 2.38D-01
 ErrMax= 2.38D-01 EMaxC= 1.00D-01 BMatC= 6.90D+02 BMatP= 6.90D+02
 IDIUse=3 WtCom= 0.00D+00 WtEn= 1.00D+00
 Coeff-Com:  0.100D+01
 Coeff-En:   0.100D+01
 Coeff:      0.100D+01
 Gap=     0.454 Goal=   None    Shift=    0.000
 GapD=    0.454 DampG=2.000 DampE=0.125 DampFc=0.2500 IDamp=-1.
 Damping current iteration by 2.50D-01
 RMSDP=5.22D-03 MaxDP=7.63D-01              OVMax= 6.83D-01

 Cycle   2  Pass 1  IDiag  1:
 RMSU=  9.17D-04    CP:  1.01D+00
 E= -51014.4552693153     Delta-E=       -3.141742014108 Rises=F Damp=T
 DIIS: error= 1.78D-01 at cycle   2 NSaved=   2.
 NSaved= 2 IEnMin= 2 EnMin= -51014.4552693153     IErMin= 2 ErrMin= 1.78D-01
 ErrMax= 1.78D-01 EMaxC= 1.00D-01 BMatC= 3.38D+02 BMatP= 6.90D+02
 IDIUse=3 WtCom= 0.00D+00 WtEn= 1.00D+00
 Coeff-Com: -0.210D+01 0.310D+01
 Coeff-En:   0.000D+00 0.100D+01
 Coeff:      0.000D+00 0.100D+01
 Gap=    -0.028 Goal=   None    Shift=    0.000
 RMSDP=1.85D-03 MaxDP=2.17D-01 DE=-3.14D+00 OVMax= 5.72D-01

 Cycle   3  Pass 1  IDiag  1:
 RMSU=  1.22D-03    CP:  1.01D+00  1.53D+00
 E= -51017.7897416004     Delta-E=       -3.334472285060 Rises=F Damp=F
 DIIS: error= 5.18D-02 at cycle   3 NSaved=   3.
 NSaved= 3 IEnMin= 3 EnMin= -51017.7897416004     IErMin= 3 ErrMin= 5.18D-02
 ErrMax= 5.18D-02 EMaxC= 1.00D-01 BMatC= 1.90D+01 BMatP= 3.38D+02
 IDIUse=3 WtCom= 4.82D-01 WtEn= 5.18D-01
 EnCoef did   100 forward-backward iterations
 Coeff-Com:  0.161D+01-0.208D+01 0.147D+01
 Coeff-En:   0.189D+00 0.244D-02 0.808D+00
 Coeff:      0.875D+00-0.100D+01 0.113D+01
 Gap=     0.088 Goal=   None    Shift=    0.000
 RMSDP=2.47D-03 MaxDP=4.04D-01 DE=-3.33D+00 OVMax= 4.03D-01

 Cycle   4  Pass 1  IDiag  1:
 RMSU=  1.46D-03    CP:  1.01D+00  1.27D+00  2.42D-01
 E= -51017.2457907808     Delta-E=        0.543950819629 Rises=F Damp=F
 DIIS: error= 3.19D-02 at cycle   4 NSaved=   4.
 NSaved= 4 IEnMin= 3 EnMin= -51017.7897416004     IErMin= 4 ErrMin= 3.19D-02
 ErrMax= 3.19D-02 EMaxC= 1.00D-01 BMatC= 5.26D+00 BMatP= 1.90D+01
 IDIUse=3 WtCom= 6.81D-01 WtEn= 3.19D-01
 Coeff-Com:  0.358D+00-0.437D+00 0.580D+00 0.500D+00
 Coeff-En:   0.000D+00 0.000D+00 0.543D+00 0.457D+00
 Coeff:      0.244D+00-0.298D+00 0.568D+00 0.486D+00
 Gap=     0.166 Goal=   None    Shift=    0.000
 RMSDP=2.52D-03 MaxDP=5.09D-01 DE= 5.44D-01 OVMax= 4.18D-01

 Cycle   5  Pass 1  IDiag  1:
 RMSU=  4.62D-04    CP:  1.00D+00  1.13D+00  8.05D-01 -7.43D-02
 E= -51019.2617036005     Delta-E=       -2.015912819727 Rises=F Damp=F
 DIIS: error= 8.58D-03 at cycle   5 NSaved=   5.
 NSaved= 5 IEnMin= 5 EnMin= -51019.2617036005     IErMin= 5 ErrMin= 8.58D-03
 ErrMax= 8.58D-03 EMaxC= 1.00D-01 BMatC= 1.02D+00 BMatP= 5.26D+00
 IDIUse=3 WtCom= 9.14D-01 WtEn= 8.58D-02
 Coeff-Com: -0.385D-01 0.591D-01 0.113D+00 0.342D+00 0.524D+00
 Coeff-En:   0.000D+00 0.000D+00 0.000D+00 0.283D+00 0.717D+00
 Coeff:     -0.352D-01 0.541D-01 0.104D+00 0.337D+00 0.541D+00
 Gap=     0.091 Goal=   None    Shift=    0.000
 RMSDP=1.10D-03 MaxDP=2.23D-01 DE=-2.02D+00 OVMax= 3.32D-01

 Cycle   6  Pass 1  IDiag  1:
 RMSU=  3.89D-04    CP:  1.01D+00  1.00D+00  6.87D-01  2.35D-01  9.13D-04
 E= -51019.9390678946     Delta-E=       -0.677364294155 Rises=F Damp=F
 DIIS: error= 3.72D-03 at cycle   6 NSaved=   6.
 NSaved= 6 IEnMin= 6 EnMin= -51019.9390678946     IErMin= 6 ErrMin= 3.72D-03
 ErrMax= 3.72D-03 EMaxC= 1.00D-01 BMatC= 1.73D-01 BMatP= 1.02D+00
 IDIUse=3 WtCom= 9.63D-01 WtEn= 3.72D-02
 Coeff-Com: -0.164D+00 0.219D+00-0.590D-01 0.125D+00 0.308D+00 0.570D+00
 Coeff-En:   0.000D+00 0.000D+00 0.000D+00 0.000D+00 0.146D+00 0.854D+00
 Coeff:     -0.158D+00 0.211D+00-0.568D-01 0.121D+00 0.302D+00 0.580D+00
 Gap=     0.109 Goal=   None    Shift=    0.000
 RMSDP=5.31D-04 MaxDP=6.87D-02 DE=-6.77D-01 OVMax= 1.23D-01

 Cycle   7  Pass 1  IDiag  1:
 RMSU=  1.98D-04    CP:  1.01D+00  1.08D+00  7.20D-01  1.96D-01  3.82D-01
                    CP:  3.70D-01
 E= -51020.0422246659     Delta-E=       -0.103156771293 Rises=F Damp=F
 DIIS: error= 2.22D-03 at cycle   7 NSaved=   7.
 NSaved= 7 IEnMin= 7 EnMin= -51020.0422246659     IErMin= 7 ErrMin= 2.22D-03
 ErrMax= 2.22D-03 EMaxC= 1.00D-01 BMatC= 3.96D-02 BMatP= 1.73D-01
 IDIUse=3 WtCom= 9.78D-01 WtEn= 2.22D-02
 Coeff-Com: -0.860D-01 0.115D+00-0.404D-01 0.494D-01 0.122D+00 0.391D+00
 Coeff-Com:  0.449D+00
 Coeff-En:   0.000D+00 0.000D+00 0.000D+00 0.000D+00 0.000D+00 0.240D+00
 Coeff-En:   0.760D+00
 Coeff:     -0.841D-01 0.112D+00-0.395D-01 0.483D-01 0.120D+00 0.388D+00
 Coeff:      0.456D+00
 Gap=     0.095 Goal=   None    Shift=    0.000
 RMSDP=2.32D-04 MaxDP=3.43D-02 DE=-1.03D-01 OVMax= 5.98D-02

 Cycle   8  Pass 1  IDiag  1:
 RMSU=  1.10D-04    CP:  1.01D+00  1.09D+00  7.08D-01  2.22D-01  3.15D-01
                    CP:  5.21D-01  5.31D-01
 E= -51020.0670824704     Delta-E=       -0.024857804470 Rises=F Damp=F
 DIIS: error= 1.48D-03 at cycle   8 NSaved=   8.
 NSaved= 8 IEnMin= 8 EnMin= -51020.0670824704     IErMin= 8 ErrMin= 1.48D-03
 ErrMax= 1.48D-03 EMaxC= 1.00D-01 BMatC= 1.01D-02 BMatP= 3.96D-02
 IDIUse=3 WtCom= 9.85D-01 WtEn= 1.48D-02
 Coeff-Com: -0.206D-01 0.273D-01-0.116D-01 0.139D-01 0.190D-01 0.172D+00
 Coeff-Com:  0.360D+00 0.440D+00
 Coeff-En:   0.000D+00 0.000D+00 0.000D+00 0.000D+00 0.000D+00 0.000D+00
 Coeff-En:   0.149D+00 0.851D+00
 Coeff:     -0.203D-01 0.269D-01-0.114D-01 0.137D-01 0.187D-01 0.169D+00
 Coeff:      0.357D+00 0.446D+00
 Gap=     0.090 Goal=   None    Shift=    0.000
 RMSDP=8.97D-05 MaxDP=1.77D-02 DE=-2.49D-02 OVMax= 2.20D-02

 Cycle   9  Pass 1  IDiag  1:
 RMSU=  4.21D-05    CP:  1.01D+00  1.08D+00  6.98D-01  2.35D-01  3.03D-01
                    CP:  5.54D-01  6.05D-01  6.72D-01
 E= -51020.0722827981     Delta-E=       -0.005200327723 Rises=F Damp=F
 DIIS: error= 6.61D-04 at cycle   9 NSaved=   9.
 NSaved= 9 IEnMin= 9 EnMin= -51020.0722827981     IErMin= 9 ErrMin= 6.61D-04
 ErrMax= 6.61D-04 EMaxC= 1.00D-01 BMatC= 1.99D-03 BMatP= 1.01D-02
 IDIUse=3 WtCom= 9.93D-01 WtEn= 6.61D-03
 Coeff-Com: -0.361D-02 0.472D-02-0.306D-02 0.297D-02-0.337D-02 0.691D-01
 Coeff-Com:  0.200D+00 0.347D+00 0.386D+00
 Coeff-En:   0.000D+00 0.000D+00 0.000D+00 0.000D+00 0.000D+00 0.000D+00
 Coeff-En:   0.000D+00 0.185D+00 0.815D+00
 Coeff:     -0.358D-02 0.469D-02-0.304D-02 0.295D-02-0.335D-02 0.687D-01
 Coeff:      0.198D+00 0.346D+00 0.389D+00
 Gap=     0.087 Goal=   None    Shift=    0.000
 RMSDP=4.40D-05 MaxDP=5.20D-03 DE=-5.20D-03 OVMax= 9.47D-03

 Error on total polarization charges =  0.02875
 SCF Done:  E(RPBE-PBE) =  -51020.0722828     A.U. after    9 cycles
             Convg  =    0.4398D-04             -V/T =  2.0160
 KE= 5.021907585765D+04 PE=-1.515605988894D+05 EE= 3.492490220789D+04
 Leave Link  502 at Sat Jun 15 02:15:19 2019, MaxMem=13421772800 cpu:   45452.3
 (Enter /home/scr/programs/g09/l801.exe)
 Range of M.O.s used for correlation:     1  1406
 NBasis=  1406 NAE=   262 NBE=   262 NFC=     0 NFV=     0
 NROrb=   1406 NOA=   262 NOB=   262 NVA=  1144 NVB=  1144

 **** Warning!!: The largest alpha MO coefficient is  0.35706877D+02


 **** Warning!!: The smallest alpha delta epsilon is  0.85389912D-01

 Leave Link  801 at Sat Jun 15 02:15:19 2019, MaxMem=13421772800 cpu:       2.4
 (Enter /home/scr/programs/g09/l1002.exe)
 Minotr:  Closed shell wavefunction.
 NEqPCM:  Using equilibrium solvation (IEInf=0, Eps=   8.9300, EpsInf=   2.0283)
          Direct CPHF calculation.
          Differentiating once with respect to magnetic field using GIAOs.
          Electric field/nuclear overlap derivatives assumed to be zero.
          Requested convergence is 1.0D-08 RMS, and 1.0D-07 maximum.
          Secondary convergence is 1.0D-12 RMS, and 1.0D-12 maximum.
          NewPWx=T KeepS1=F KeepF1=F KeepIn=T MapXYZ=F SortEE=F KeepMc=T.
          MDV=   13421772348 using IRadAn=       2.
 Defaulting to unpruned grid for atomic number  78.
 Defaulting to unpruned grid for atomic number  78.
 Defaulting to unpruned grid for atomic number  50.
 Defaulting to unpruned grid for atomic number  50.
 Generate precomputed XC quadrature information.
          Solving linear equations simultaneously, MaxMat=       0.
 FoFCou: FMM=F IPFlag=           0 FMFlag=    10101102 FMFlg1=           0
         NFxFlg=    40000000 DoJE=F BraDBF=F KetDBF=T FulRan=T
         Omega=  0.000000  0.000000  1.000000  0.000000  0.000000 ICntrl=    6100 IOpCl=  0
         NMat0=    1 NMatS0=    1 NMatT0=    0 NMatD0=    1 NMtDS0=    0 NMtDT0=    0
         I1Cent=           7 NGrid=        4598.
 Symmetry not used in FoFCou.
 Defaulting to unpruned grid for atomic number  78.
 Defaulting to unpruned grid for atomic number  78.
 Defaulting to unpruned grid for atomic number  78.
 Defaulting to unpruned grid for atomic number  78.
 Defaulting to unpruned grid for atomic number  78.
 Defaulting to unpruned grid for atomic number  78.
 Defaulting to unpruned grid for atomic number  78.
 Defaulting to unpruned grid for atomic number  78.
 Defaulting to unpruned grid for atomic number  78.
 Defaulting to unpruned grid for atomic number  78.
 Defaulting to unpruned grid for atomic number  78.
 Defaulting to unpruned grid for atomic number  78.
 Defaulting to unpruned grid for atomic number  78.
 Defaulting to unpruned grid for atomic number  78.
 Defaulting to unpruned grid for atomic number  78.
 Defaulting to unpruned grid for atomic number  78.
 Defaulting to unpruned grid for atomic number  78.
 Defaulting to unpruned grid for atomic number  78.
 Defaulting to unpruned grid for atomic number  78.
 Defaulting to unpruned grid for atomic number  78.
 Defaulting to unpruned grid for atomic number  78.
 Defaulting to unpruned grid for atomic number  78.
 Defaulting to unpruned grid for atomic number  78.
 Defaulting to unpruned grid for atomic number  78.
 Defaulting to unpruned grid for atomic number  78.
 Defaulting to unpruned grid for atomic number  78.
 Defaulting to unpruned grid for atomic number  78.
 Defaulting to unpruned grid for atomic number  78.
 Defaulting to unpruned grid for atomic number  78.
 Defaulting to unpruned grid for atomic number  78.
 Defaulting to unpruned grid for atomic number  78.
 Defaulting to unpruned grid for atomic number  78.
          There are     3 degrees of freedom in the 1st order CPHF.  IDoFFX=0.
      3 vectors produced by pass  0 Test12= 9.99D-12 3.33D-08 XBig12= 4.44D+02 3.71D+00.
 AX will form     3 AO Fock derivatives at one time.
 Inverted reduced A of dimension     3 with in-core refinement.
 Calculating GIAO nuclear magnetic shielding tensors.
 SCF GIAO Magnetic shielding tensor (ppm):
  1  Pt   Isotropic =  2834.6609   Anisotropy =  2788.1990
   XX=  3507.4225   YX=   389.0942   ZX= -1270.9613
   XY=   366.3129   YY=  4039.2044   ZY=  -651.0398
   XZ= -1270.3430   YZ=  -791.8421   ZZ=   957.3559
   Eigenvalues:   355.9885  3454.5340  4693.4603
  2  Cl   Isotropic =   948.9000   Anisotropy =   374.4212
   XX=   968.1128   YX=     0.0772   ZX=   -31.8823
   XY=    11.8755   YY=   720.9189   ZY=    39.9425
   XZ=  -119.2702   YZ=  -211.1261   ZZ=  1157.6685
   Eigenvalues:   704.4793   943.7067  1198.5141
  3  Cl   Isotropic =   961.5716   Anisotropy =   420.6231
   XX=   909.9304   YX=    36.7587   ZX=    84.4514
   XY=    50.4416   YY=   791.0460   ZY=    30.8656
   XZ=    39.5271   YZ=   241.1686   ZZ=  1183.7382
   Eigenvalues:   745.0645   897.6631  1241.9870
  4  Sn   Isotropic =  2079.4239   Anisotropy =   809.7140
   XX=  2237.6767   YX=  -361.4969   ZX=  -143.0321
   XY=  -362.4489   YY=  2216.1047   ZY=    82.0332
   XZ=  -128.6616   YZ=    93.6862   ZZ=  1784.4905
   Eigenvalues:  1746.2096  1872.8290  2619.2333
  5  Cl   Isotropic =   731.6948   Anisotropy =   369.1127
   XX=   779.9030   YX=   -46.8076   ZX=   164.0103
   XY=   -54.3309   YY=   665.8554   ZY=  -100.2297
   XZ=   183.4983   YZ=  -112.1715   ZZ=   749.3261
   Eigenvalues:   562.8697   654.4448   977.7699
  6  Cl   Isotropic =   733.8796   Anisotropy =   342.9065
   XX=   614.0922   YX=    68.5176   ZX=    13.0353
   XY=    79.1926   YY=   903.2954   ZY=   113.6325
   XZ=    25.9050   YZ=    97.7913   ZZ=   684.2513
   Eigenvalues:   595.6908   643.4641   962.4839
  7  Cl   Isotropic =   725.5655   Anisotropy =   318.7000
   XX=   806.4738   YX=    68.5903   ZX=  -140.1926
   XY=    47.5881   YY=   615.6816   ZY=    14.3828
   XZ=  -167.3903   YZ=    55.0814   ZZ=   754.5412
   Eigenvalues:   555.2539   683.4105   938.0322
  8  P    Isotropic =   210.5210   Anisotropy =   158.3662
   XX=   211.3342   YX=    47.0702   ZX=   -44.3906
   XY=    86.3265   YY=   251.9565   ZY=   -29.9185
   XZ=     3.2578   YZ=   -55.5563   ZZ=   168.2723
   Eigenvalues:   148.2751   167.1894   316.0985
  9  C    Isotropic =   151.8161   Anisotropy =    24.7792
   XX=   158.2941   YX=    12.7758   ZX=     7.0012
   XY=     3.7233   YY=   156.2640   ZY=     4.7799
   XZ=     2.5697   YZ=    10.4419   ZZ=   140.8903
   Eigenvalues:   137.6595   149.4533   168.3356
 10  H    Isotropic =    28.7720   Anisotropy =    11.7111
   XX=    30.1247   YX=     2.6736   ZX=     1.3932
   XY=     3.3245   YY=    34.8663   ZY=     1.4573
   XZ=     0.7249   YZ=     1.9503   ZZ=    21.3252
   Eigenvalues:    21.0585    28.6782    36.5794
 11  H    Isotropic =    29.2996   Anisotropy =     7.3688
   XX=    30.1308   YX=     0.9341   ZX=     1.3291
   XY=     0.7441   YY=    26.5368   ZY=     3.2912
   XZ=     2.0916   YZ=     4.2488   ZZ=    31.2312
   Eigenvalues:    24.4413    29.2454    34.2121
 12  C    Isotropic =   170.3482   Anisotropy =     9.6025
   XX=   174.3606   YX=    -1.6071   ZX=    -2.5986
   XY=    -2.2358   YY=   172.1959   ZY=     0.1487
   XZ=    -5.0302   YZ=     2.3348   ZZ=   164.4880
   Eigenvalues:   163.1504   171.1442   176.7498
 13  H    Isotropic =    30.2308   Anisotropy =     8.8483
   XX=    33.2598   YX=     1.6806   ZX=    -3.5899
   XY=     1.9125   YY=    27.8395   ZY=    -0.0843
   XZ=    -4.1291   YZ=    -1.2950   ZZ=    29.5931
   Eigenvalues:    26.8921    27.6707    36.1297
 14  H    Isotropic =    30.4984   Anisotropy =     9.7185
   XX=    30.4265   YX=     0.9459   ZX=     2.0665
   XY=     2.0006   YY=    36.5965   ZY=    -0.1787
   XZ=     2.5262   YZ=     0.6691   ZZ=    24.4721
   Eigenvalues:    23.6847    30.8330    36.9774
 15  H    Isotropic =    29.4654   Anisotropy =    14.1979
   XX=    35.5714   YX=     3.1577   ZX=     4.9923
   XY=     2.8673   YY=    27.0436   ZY=     2.8381
   XZ=     4.8219   YZ=     3.1855   ZZ=    25.7811
   Eigenvalues:    22.8908    26.5747    38.9306
 16  C    Isotropic =   150.1931   Anisotropy =    28.5148
   XX=   140.6455   YX=     5.7182   ZX=    -9.8420
   XY=     7.7115   YY=   150.2680   ZY=    -6.7862
   XZ=   -12.4671   YZ=    -6.9321   ZZ=   159.6658
   Eigenvalues:   134.6900   146.6863   169.2030
 17  H    Isotropic =    28.1785   Anisotropy =     9.7557
   XX=    30.6716   YX=    -4.7267   ZX=    -2.2211
   XY=    -5.6399   YY=    27.5899   ZY=    -1.5463
   XZ=    -2.5146   YZ=    -1.2526   ZZ=    26.2739
   Eigenvalues:    22.1333    27.7199    34.6822
 18  H    Isotropic =    29.4058   Anisotropy =    11.9458
   XX=    27.9336   YX=     4.9579   ZX=    -2.4472
   XY=     5.3392   YY=    31.1417   ZY=    -3.6027
   XZ=    -2.3473   YZ=    -3.9884   ZZ=    29.1421
   Eigenvalues:    24.1131    26.7347    37.3697
 19  C    Isotropic =   173.3617   Anisotropy =    15.3788
   XX=   172.9835   YX=     6.5563   ZX=     7.8829
   XY=     4.6793   YY=   169.2682   ZY=    -2.1227
   XZ=     7.1003   YZ=    -1.0184   ZZ=   177.8336
   Eigenvalues:   162.7799   173.6910   183.6143
 20  H    Isotropic =    30.1367   Anisotropy =     7.6736
   XX=    32.2651   YX=    -3.4261   ZX=     1.4036
   XY=    -2.8628   YY=    27.9314   ZY=    -2.6088
   XZ=     1.9762   YZ=    -1.9273   ZZ=    30.2136
   Eigenvalues:    25.8586    29.2991    35.2524
 21  H    Isotropic =    30.1364   Anisotropy =     5.3993
   XX=    28.5883   YX=     3.5422   ZX=    -0.3163
   XY=     2.7780   YY=    30.0858   ZY=    -2.2896
   XZ=     1.0881   YZ=    -1.8570   ZZ=    31.7349
   Eigenvalues:    25.6546    31.0186    33.7359
 22  H    Isotropic =    29.8521   Anisotropy =    13.1759
   XX=    26.8067   YX=     0.4585   ZX=    -0.7075
   XY=     0.3126   YY=    24.3409   ZY=    -1.3409
   XZ=    -1.4818   YZ=    -1.2702   ZZ=    38.4088
   Eigenvalues:    24.1889    26.7314    38.6361
 23  C    Isotropic =   147.4868   Anisotropy =    37.1730
   XX=   136.9953   YX=   -10.1722   ZX=    -6.3077
   XY=    -9.3346   YY=   167.9850   ZY=   -11.9077
   XZ=    -7.2333   YZ=    -6.4162   ZZ=   137.4801
   Eigenvalues:   126.1799   144.0117   172.2688
 24  H    Isotropic =    29.6122   Anisotropy =     9.8555
   XX=    25.3390   YX=     0.0511   ZX=    -1.8906
   XY=     0.0259   YY=    34.3298   ZY=    -3.2939
   XZ=    -2.4675   YZ=    -3.6717   ZZ=    29.1679
   Eigenvalues:    24.1226    28.5316    36.1825
 25  H    Isotropic =    28.6668   Anisotropy =     5.3994
   XX=    31.6254   YX=     1.0834   ZX=     1.2595
   XY=     1.1962   YY=    29.9235   ZY=    -1.5422
   XZ=     1.4392   YZ=    -0.7484   ZZ=    24.4516
   Eigenvalues:    23.9066    29.8275    32.2664
 26  C    Isotropic =   172.2852   Anisotropy =    17.5623
   XX=   166.6602   YX=     1.3319   ZX=    -6.5958
   XY=     1.8451   YY=   175.1946   ZY=     7.5861
   XZ=    -5.8747   YZ=     8.8416   ZZ=   175.0007
   Eigenvalues:   160.9724   171.8897   183.9934
 27  H    Isotropic =    30.0193   Anisotropy =    12.5119
   XX=    28.9706   YX=    -4.0818   ZX=    -0.4194
   XY=    -4.3822   YY=    35.4867   ZY=     2.9139
   XZ=    -1.1710   YZ=     3.3744   ZZ=    25.6006
   Eigenvalues:    24.6223    27.0749    38.3606
 28  H    Isotropic =    30.1503   Anisotropy =    10.5399
   XX=    31.4797   YX=     2.6918   ZX=     1.3538
   XY=     3.0219   YY=    31.8514   ZY=     5.4378
   XZ=     1.7653   YZ=     5.2439   ZZ=    27.1199
   Eigenvalues:    23.6352    29.6389    37.1769
 29  H    Isotropic =    30.1621   Anisotropy =     6.0110
   XX=    27.1864   YX=     3.3615   ZX=    -2.0875
   XY=     2.8684   YY=    32.7704   ZY=     1.8391
   XZ=    -3.0106   YZ=     0.7560   ZZ=    30.5294
   Eigenvalues:    24.4521    31.8647    34.1694
 30  Pt   Isotropic =  2814.3787   Anisotropy =  3118.8686
   XX=  3596.6685   YX=   658.6429   ZX=  1309.3498
   XY=   737.0478   YY=  4095.1566   ZY=   319.7557
   XZ=  1421.0904   YZ=   350.5012   ZZ=   751.3111
   Eigenvalues:   201.5468  3347.9649  4893.6245
 31  Sn   Isotropic =  2085.2290   Anisotropy =   788.6587
   XX=  2135.1841   YX=  -317.3944   ZX=   193.4780
   XY=  -332.6392   YY=  2249.1553   ZY=  -166.9070
   XZ=   189.4242   YZ=  -180.3420   ZZ=  1871.3476
   Eigenvalues:  1770.7318  1873.9537  2611.0015
 32  Cl   Isotropic =   747.4092   Anisotropy =   333.7005
   XX=   667.3590   YX=   -44.1543   ZX=   -67.5296
   XY=   -57.5775   YY=   838.0513   ZY=   166.8777
   XZ=   -71.6416   YZ=   136.8703   ZZ=   736.8173
   Eigenvalues:   608.8874   663.4641   969.8762
 33  Cl   Isotropic =   743.7092   Anisotropy =   364.8265
   XX=   634.1733   YX=    68.9255   ZX=   -46.4275
   XY=    57.1764   YY=   729.4810   ZY=  -160.3186
   XZ=   -43.9942   YZ=  -158.0648   ZZ=   867.4733
   Eigenvalues:   594.6342   649.5665   986.9268
 34  Cl   Isotropic =   738.1158   Anisotropy =   310.6037
   XX=   931.0904   YX=    53.5023   ZX=    39.3511
   XY=    37.2578   YY=   604.4994   ZY=     5.5112
   XZ=    53.2525   YZ=    -5.3776   ZZ=   678.7575
   Eigenvalues:   597.7985   671.3638   945.1849
 35  P    Isotropic =   197.4604   Anisotropy =   162.0790
   XX=   205.9274   YX=    65.5693   ZX=    -9.0665
   XY=    72.7097   YY=   255.5792   ZY=     5.1582
   XZ=   -13.8378   YZ=    47.3446   ZZ=   130.8746
   Eigenvalues:   115.4055   171.4626   305.5130
 36  C    Isotropic =   153.3138   Anisotropy =    26.4009
   XX=   156.7148   YX=     0.5426   ZX=   -15.1390
   XY=    -4.4932   YY=   152.5796   ZY=    -7.8277
   XZ=   -17.7320   YZ=    -6.2247   ZZ=   150.6469
   Eigenvalues:   134.4801   154.5468   170.9144
 37  H    Isotropic =    28.6992   Anisotropy =    11.2534
   XX=    27.6076   YX=     4.3108   ZX=    -2.8538
   XY=     5.1778   YY=    33.2221   ZY=    -0.3130
   XZ=    -2.8989   YZ=    -0.3020   ZZ=    25.2679
   Eigenvalues:    22.6299    27.2662    36.2015
 38  H    Isotropic =    29.4847   Anisotropy =     7.9972
   XX=    29.4583   YX=    -0.9615   ZX=     0.0550
   XY=    -0.8604   YY=    27.6748   ZY=    -4.9930
   XZ=    -0.5029   YZ=    -4.9530   ZZ=    31.3211
   Eigenvalues:    24.0592    29.5788    34.8162
 39  C    Isotropic =   169.7008   Anisotropy =    16.6607
   XX=   174.3025   YX=    -3.1896   ZX=   -10.0581
   XY=    -3.7362   YY=   173.6202   ZY=     0.5983
   XZ=    -7.6807   YZ=     2.6514   ZZ=   161.1796
   Eigenvalues:   156.7077   171.5867   180.8079
 40  H    Isotropic =    30.0370   Anisotropy =     7.4288
   XX=    34.6895   YX=    -0.9625   ZX=     0.5521
   XY=    -1.1958   YY=    27.8282   ZY=    -2.6015
   XZ=     0.7355   YZ=    -1.6487   ZZ=    27.5932
   Eigenvalues:    25.5738    29.5476    34.9895
 41  H    Isotropic =    30.6040   Anisotropy =     7.2640
   XX=    29.6566   YX=     1.5698   ZX=    -4.2116
   XY=     3.6990   YY=    32.6375   ZY=    -0.1446
   XZ=    -4.1787   YZ=    -0.3523   ZZ=    29.5178
   Eigenvalues:    25.0017    31.3636    35.4466
 42  H    Isotropic =    29.8146   Anisotropy =    14.1314
   XX=    30.6129   YX=     1.2562   ZX=    -7.5356
   XY=     0.8358   YY=    26.7637   ZY=    -2.3375
   XZ=    -7.0203   YZ=    -3.0128   ZZ=    32.0671
   Eigenvalues:    23.6336    26.5747    39.2356
 43  C    Isotropic =   156.0152   Anisotropy =    26.8273
   XX=   150.4777   YX=   -10.0517   ZX=   -16.7952
   XY=    -9.1357   YY=   161.8812   ZY=     2.0369
   XZ=   -14.2075   YZ=     1.3078   ZZ=   155.6868
   Eigenvalues:   135.7672   158.3784   173.9001
 44  H    Isotropic =    28.9372   Anisotropy =     3.4770
   XX=    28.9377   YX=     0.2718   ZX=     2.6637
   XY=     0.1706   YY=    30.7464   ZY=    -0.8032
   XZ=     3.3882   YZ=    -0.3616   ZZ=    27.1273
   Eigenvalues:    24.8135    30.7428    31.2552
 45  H    Isotropic =    29.2448   Anisotropy =    10.1331
   XX=    28.5568   YX=     2.4587   ZX=    -1.5792
   XY=     2.1524   YY=    35.2013   ZY=     0.0035
   XZ=    -1.9098   YZ=    -0.9065   ZZ=    23.9762
   Eigenvalues:    23.3787    28.3555    36.0002
 46  C    Isotropic =   172.4083   Anisotropy =    15.0277
   XX=   175.7588   YX=     0.0436   ZX=    -8.4541
   XY=     1.2165   YY=   170.9259   ZY=     4.0752
   XZ=    -8.7691   YZ=     3.4679   ZZ=   170.5403
   Eigenvalues:   162.7128   172.0854   182.4268
 47  H    Isotropic =    29.9036   Anisotropy =    11.0039
   XX=    32.6734   YX=    -4.0152   ZX=    -1.4666
   XY=    -3.7547   YY=    31.8859   ZY=     3.0540
   XZ=    -2.2422   YZ=     3.4273   ZZ=    25.1514
   Eigenvalues:    23.8348    28.6363    37.2395
 48  H    Isotropic =    30.0431   Anisotropy =     8.2760
   XX=    32.7782   YX=     3.6355   ZX=    -1.5933
   XY=     3.2584   YY=    31.2448   ZY=     3.7663
   XZ=    -2.2837   YZ=     2.2471   ZZ=    26.1065
   Eigenvalues:    23.5348    31.0342    35.5605
 49  H    Isotropic =    30.2510   Anisotropy =     8.9708
   XX=    30.3748   YX=     0.4463   ZX=     1.3766
   XY=    -0.0066   YY=    26.9839   ZY=     4.7090
   XZ=     1.7506   YZ=     4.6302   ZZ=    33.3944
   Eigenvalues:    24.4754    30.0462    36.2316
 50  C    Isotropic =   154.4631   Anisotropy =    48.1801
   XX=   145.8957   YX=    19.1507   ZX=    21.6217
   XY=    16.5775   YY=   167.3413   ZY=     9.1683
   XZ=    18.1302   YZ=     8.2830   ZZ=   150.1521
   Eigenvalues:   126.3424   150.4636   186.5831
 51  H    Isotropic =    27.9959   Anisotropy =    13.4362
   XX=    27.5701   YX=    -2.3703   ZX=     3.8170
   XY=    -4.0551   YY=    35.5620   ZY=     3.5849
   XZ=     3.8499   YZ=     3.1554   ZZ=    20.8555
   Eigenvalues:    18.0032    29.0311    36.9533
 52  H    Isotropic =    29.3568   Anisotropy =     5.0041
   XX=    27.7611   YX=     2.4852   ZX=     0.9870
   XY=     2.9886   YY=    28.9165   ZY=     0.6294
   XZ=     1.1554   YZ=     1.2862   ZZ=    31.3930
   Eigenvalues:    25.5321    29.8456    32.6929
 53  C    Isotropic =   173.9861   Anisotropy =    24.1003
   XX=   172.9361   YX=     9.0619   ZX=     5.1288
   XY=     9.2938   YY=   181.4689   ZY=     6.0145
   XZ=     4.9176   YZ=     6.1508   ZZ=   167.5534
   Eigenvalues:   164.5062   167.3992   190.0530
 54  H    Isotropic =    30.6532   Anisotropy =     9.1502
   XX=    30.4086   YX=     0.2035   ZX=     2.0339
   XY=    -1.2152   YY=    35.2977   ZY=     3.8609
   XZ=     1.6844   YZ=     3.9429   ZZ=    26.2534
   Eigenvalues:    24.2086    30.9977    36.7534
 55  H    Isotropic =    30.1289   Anisotropy =    13.3371
   XX=    29.6373   YX=     2.4696   ZX=     6.6198
   XY=     3.2061   YY=    28.2536   ZY=     3.3313
   XZ=     6.1397   YZ=     2.1190   ZZ=    32.4959
   Eigenvalues:    24.4305    26.9360    39.0203
 56  H    Isotropic =    30.5172   Anisotropy =    10.0806
   XX=    33.0396   YX=     5.1318   ZX=    -2.0251
   XY=     5.7184   YY=    29.8841   ZY=     0.1501
   XZ=    -1.4045   YZ=     0.9903   ZZ=    28.6279
   Eigenvalues:    25.1592    29.1548    37.2376
 End of Minotr Frequency-dependent properties file   721 does not exist.
 End of Minotr Frequency-dependent properties file   722 does not exist.
 Leave Link 1002 at Sat Jun 15 02:57:52 2019, MaxMem=13421772800 cpu:   79070.8
 (Enter /home/scr/programs/g09/l601.exe)
 Copying SCF densities to generalized density rwf, IOpCl= 0 IROHF=0.

 **********************************************************************

            Population analysis using the SCF density.

 **********************************************************************

 Orbital symmetries:
       Occupied  (A) (A) (A) (A) (A) (A) (A) (A) (A) (A) (A) (A)
                 (A) (A) (A) (A) (A) (A) (A) (A) (A) (A) (A) (A)
                 (A) (A) (A) (A) (A) (A) (A) (A) (A) (A) (A) (A)
                 (A) (A) (A) (A) (A) (A) (A) (A) (A) (A) (A) (A)
                 (A) (A) (A) (A) (A) (A) (A) (A) (A) (A) (A) (A)
                 (A) (A) (A) (A) (A) (A) (A) (A) (A) (A) (A) (A)
                 (A) (A) (A) (A) (A) (A) (A) (A) (A) (A) (A) (A)
                 (A) (A) (A) (A) (A) (A) (A) (A) (A) (A) (A) (A)
                 (A) (A) (A) (A) (A) (A) (A) (A) (A) (A) (A) (A)
                 (A) (A) (A) (A) (A) (A) (A) (A) (A) (A) (A) (A)
                 (A) (A) (A) (A) (A) (A) (A) (A) (A) (A) (A) (A)
                 (A) (A) (A) (A) (A) (A) (A) (A) (A) (A) (A) (A)
                 (A) (A) (A) (A) (A) (A) (A) (A) (A) (A) (A) (A)
                 (A) (A) (A) (A) (A) (A) (A) (A) (A) (A) (A) (A)
                 (A) (A) (A) (A) (A) (A) (A) (A) (A) (A) (A) (A)
                 (A) (A) (A) (A) (A) (A) (A) (A) (A) (A) (A) (A)
                 (A) (A) (A) (A) (A) (A) (A) (A) (A) (A) (A) (A)
                 (A) (A) (A) (A) (A) (A) (A) (A) (A) (A) (A) (A)
                 (A) (A) (A) (A) (A) (A) (A) (A) (A) (A) (A) (A)
                 (A) (A) (A) (A) (A) (A) (A) (A) (A) (A) (A) (A)
                 (A) (A) (A) (A) (A) (A) (A) (A) (A) (A) (A) (A)
                 (A) (A) (A) (A) (A) (A) (A) (A) (A) (A)
       Virtual   (A) (A) (A) (A) (A) (A) (A) (A) (A) (A) (A) (A)
                 (A) (A) (A) (A) (A) (A) (A) (A) (A) (A) (A) (A)
                 (A) (A) (A) (A) (A) (A) (A) (A) (A) (A) (A) (A)
                 (A) (A) (A) (A) (A) (A) (A) (A) (A) (A) (A) (A)
                 (A) (A) (A) (A) (A) (A) (A) (A) (A) (A) (A) (A)
                 (A) (A) (A) (A) (A) (A) (A) (A) (A) (A) (A) (A)
                 (A) (A) (A) (A) (A) (A) (A) (A) (A) (A) (A) (A)
                 (A) (A) (A) (A) (A) (A) (A) (A) (A) (A) (A) (A)
                 (A) (A) (A) (A) (A) (A) (A) (A) (A) (A) (A) (A)
                 (A) (A) (A) (A) (A) (A) (A) (A) (A) (A) (A) (A)
                 (A) (A) (A) (A) (A) (A) (A) (A) (A) (A) (A) (A)
                 (A) (A) (A) (A) (A) (A) (A) (A) (A) (A) (A) (A)
                 (A) (A) (A) (A) (A) (A) (A) (A) (A) (A) (A) (A)
                 (A) (A) (A) (A) (A) (A) (A) (A) (A) (A) (A) (A)
                 (A) (A) (A) (A) (A) (A) (A) (A) (A) (A) (A) (A)
                 (A) (A) (A) (A) (A) (A) (A) (A) (A) (A) (A) (A)
                 (A) (A) (A) (A) (A) (A) (A) (A) (A) (A) (A) (A)
                 (A) (A) (A) (A) (A) (A) (A) (A) (A) (A) (A) (A)
                 (A) (A) (A) (A) (A) (A) (A) (A) (A) (A) (A) (A)
                 (A) (A) (A) (A) (A) (A) (A) (A) (A) (A) (A) (A)
                 (A) (A) (A) (A) (A) (A) (A) (A) (A) (A) (A) (A)
                 (A) (A) (A) (A) (A) (A) (A) (A) (A) (A) (A) (A)
                 (A) (A) (A) (A) (A) (A) (A) (A) (A) (A) (A) (A)
                 (A) (A) (A) (A) (A) (A) (A) (A) (A) (A) (A) (A)
                 (A) (A) (A) (A) (A) (A) (A) (A) (A) (A) (A) (A)
                 (A) (A) (A) (A) (A) (A) (A) (A) (A) (A) (A) (A)
                 (A) (A) (A) (A) (A) (A) (A) (A) (A) (A) (A) (A)
                 (A) (A) (A) (A) (A) (A) (A) (A) (A) (A) (A) (A)
                 (A) (A) (A) (A) (A) (A) (A) (A) (A) (A) (A) (A)
                 (A) (A) (A) (A) (A) (A) (A) (A) (A) (A) (A) (A)
                 (A) (A) (A) (A) (A) (A) (A) (A) (A) (A) (A) (A)
                 (A) (A) (A) (A) (A) (A) (A) (A) (A) (A) (A) (A)
                 (A) (A) (A) (A) (A) (A) (A) (A) (A) (A) (A) (A)
                 (A) (A) (A) (A) (A) (A) (A) (A) (A) (A) (A) (A)
                 (A) (A) (A) (A) (A) (A) (A) (A) (A) (A) (A) (A)
                 (A) (A) (A) (A) (A) (A) (A) (A) (A) (A) (A) (A)
                 (A) (A) (A) (A) (A) (A) (A) (A) (A) (A) (A) (A)
                 (A) (A) (A) (A) (A) (A) (A) (A) (A) (A) (A) (A)
                 (A) (A) (A) (A) (A) (A) (A) (A) (A) (A) (A) (A)
                 (A) (A) (A) (A) (A) (A) (A) (A) (A) (A) (A) (A)
                 (A) (A) (A) (A) (A) (A) (A) (A) (A) (A) (A) (A)
                 (A) (A) (A) (A) (A) (A) (A) (A) (A) (A) (A) (A)
                 (A) (A) (A) (A) (A) (A) (A) (A) (A) (A) (A) (A)
                 (A) (A) (A) (A) (A) (A) (A) (A) (A) (A) (A) (A)
                 (A) (A) (A) (A) (A) (A) (A) (A) (A) (A) (A) (A)
                 (A) (A) (A) (A) (A) (A) (A) (A) (A) (A) (A) (A)
                 (A) (A) (A) (A) (A) (A) (A) (A) (A) (A) (A) (A)
                 (A) (A) (A) (A) (A) (A) (A) (A) (A) (A) (A) (A)
                 (A) (A) (A) (A) (A) (A) (A) (A) (A) (A) (A) (A)
                 (A) (A) (A) (A) (A) (A) (A) (A) (A) (A) (A) (A)
                 (A) (A) (A) (A) (A) (A) (A) (A) (A) (A) (A) (A)
                 (A) (A) (A) (A) (A) (A) (A) (A) (A) (A) (A) (A)
                 (A) (A) (A) (A) (A) (A) (A) (A) (A) (A) (A) (A)
                 (A) (A) (A) (A) (A) (A) (A) (A) (A) (A) (A) (A)
                 (A) (A) (A) (A) (A) (A) (A) (A) (A) (A) (A) (A)
                 (A) (A) (A) (A) (A) (A) (A) (A) (A) (A) (A) (A)
                 (A) (A) (A) (A) (A) (A) (A) (A) (A) (A) (A) (A)
                 (A) (A) (A) (A) (A) (A) (A) (A) (A) (A) (A) (A)
                 (A) (A) (A) (A) (A) (A) (A) (A) (A) (A) (A) (A)
                 (A) (A) (A) (A) (A) (A) (A) (A) (A) (A) (A) (A)
[...]
 Alpha virt. eigenvalues --    0.57394   0.57422   0.57657   0.57837   0.57931
 Alpha virt. eigenvalues --    0.58201   0.58546   0.58735   0.59094   0.59501
 Alpha virt. eigenvalues --    0.59706   0.59837   0.60216   0.60411   0.60639
 Alpha virt. eigenvalues --    0.60999   0.61232   0.61467   0.61633   0.61748
 Alpha virt. eigenvalues --    0.62032   0.62270   0.62504   0.62834   0.62871
 Alpha virt. eigenvalues --    0.63221   0.63265   0.63481   0.63629   0.63837
 Alpha virt. eigenvalues --    0.64029   0.64446   0.64701   0.64828   0.64937
 Alpha virt. eigenvalues --    0.65254   0.65554   0.65947   0.66017   0.66367
 Alpha virt. eigenvalues --    0.66530   0.66597   0.66874   0.67049   0.67326
 Alpha virt. eigenvalues --    0.67720   0.67822   0.67956   0.68116   0.68521
 Alpha virt. eigenvalues --    0.68656   0.68874   0.69404   0.69527   0.69832
 Alpha virt. eigenvalues --    0.69962   0.70039   0.70428   0.70586   0.71264
 Alpha virt. eigenvalues --    0.71401   0.71514   0.71600   0.71888   0.72216
 Alpha virt. eigenvalues --    0.72465   0.72679   0.72698   0.73125   0.73369
 Alpha virt. eigenvalues --    0.73616   0.73874   0.74113   0.74207   0.74610
 Alpha virt. eigenvalues --    0.74939   0.75207   0.75349   0.75533   0.75929
 Alpha virt. eigenvalues --    0.75970   0.76177   0.76631   0.77059   0.77098
 Alpha virt. eigenvalues --    0.77263   0.77611   0.77763   0.77862   0.78207
 Alpha virt. eigenvalues --    0.78609   0.78797   0.79117   0.79268   0.79410
 Alpha virt. eigenvalues --    0.79958   0.80156   0.80254   0.80842   0.81018
 Alpha virt. eigenvalues --    0.81181   0.81770   0.82017   0.82310   0.82559
 Alpha virt. eigenvalues --    0.82727   0.83079   0.83365   0.83562   0.83706
 Alpha virt. eigenvalues --    0.84112   0.84527   0.84791   0.84982   0.85178
 Alpha virt. eigenvalues --    0.85488   0.85992   0.86221   0.86565   0.86897
 Alpha virt. eigenvalues --    0.87272   0.87745   0.87797   0.88201   0.88492
 Alpha virt. eigenvalues --    0.88731   0.89246   0.89408   0.89687   0.89915
 Alpha virt. eigenvalues --    0.90196   0.90322   0.90889   0.91233   0.91354
 Alpha virt. eigenvalues --    0.91729   0.91921   0.92409   0.92772   0.93015
 Alpha virt. eigenvalues --    0.93352   0.93612   0.93847   0.94233   0.94613
 Alpha virt. eigenvalues --    0.94971   0.95144   0.95627   0.96050   0.96671
 Alpha virt. eigenvalues --    0.96934   0.97251   0.97607   0.98176   0.98187
 Alpha virt. eigenvalues --    0.98368   0.98854   0.99054   0.99266   0.99749
 Alpha virt. eigenvalues --    0.99920   1.00164   1.00333   1.00755   1.01094
 Alpha virt. eigenvalues --    1.01678   1.01751   1.02247   1.02622   1.02723
 Alpha virt. eigenvalues --    1.03683   1.03710   1.03800   1.04046   1.04107
 Alpha virt. eigenvalues --    1.04718   1.04807   1.05265   1.05538   1.06051
 Alpha virt. eigenvalues --    1.06154   1.06456   1.06920   1.07411   1.07600
 Alpha virt. eigenvalues --    1.07870   1.08059   1.08351   1.08447   1.09170
 Alpha virt. eigenvalues --    1.09225   1.09515   1.09721   1.10159   1.10369
 Alpha virt. eigenvalues --    1.10814   1.11077   1.11119   1.11803   1.11896
 Alpha virt. eigenvalues --    1.12290   1.12374   1.12728   1.12925   1.13382
 Alpha virt. eigenvalues --    1.13716   1.13909   1.14068   1.14311   1.14972
 Alpha virt. eigenvalues --    1.15136   1.15664   1.16059   1.16552   1.17000
 Alpha virt. eigenvalues --    1.17460   1.17782   1.18335   1.19126   1.19598
 Alpha virt. eigenvalues --    1.20038   1.20460   1.20649   1.21429   1.21586
 Alpha virt. eigenvalues --    1.21625   1.22390   1.23288   1.23411   1.23981
 Alpha virt. eigenvalues --    1.24011   1.24874   1.25165   1.25469   1.26094
 Alpha virt. eigenvalues --    1.26708   1.26898   1.27022   1.27674   1.28342
 Alpha virt. eigenvalues --    1.28790   1.29065   1.30001   1.30669   1.30749
 Alpha virt. eigenvalues --    1.31475   1.31767   1.32406   1.32513   1.33102
 Alpha virt. eigenvalues --    1.33402   1.33572   1.33878   1.34459   1.34776
 Alpha virt. eigenvalues --    1.35176   1.35565   1.35933   1.36053   1.36676
 Alpha virt. eigenvalues --    1.36994   1.37425   1.37764   1.38173   1.38388
 Alpha virt. eigenvalues --    1.38798   1.39601   1.39725   1.39865   1.40619
 Alpha virt. eigenvalues --    1.40833   1.41865   1.41903   1.42567   1.43185
 Alpha virt. eigenvalues --    1.43662   1.43957   1.44812   1.45041   1.45292
 Alpha virt. eigenvalues --    1.46146   1.46421   1.46753   1.46889   1.47116
 Alpha virt. eigenvalues --    1.48270   1.48609   1.49219   1.50100   1.50308
 Alpha virt. eigenvalues --    1.51128   1.51365   1.51861   1.52283   1.53296
 Alpha virt. eigenvalues --    1.53396   1.53952   1.54054   1.54435   1.54809
 Alpha virt. eigenvalues --    1.55312   1.56335   1.57259   1.57500   1.57876
 Alpha virt. eigenvalues --    1.58585   1.59049   1.59852   1.60152   1.60736
 Alpha virt. eigenvalues --    1.61132   1.61727   1.62262   1.62566   1.63615
 Alpha virt. eigenvalues --    1.64013   1.65768   1.66801   1.67891   1.69186
 Alpha virt. eigenvalues --    1.70283   1.70442   1.71398   1.73377   1.74226
 Alpha virt. eigenvalues --    1.75367   1.76194   1.76968   1.77280   1.77803
 Alpha virt. eigenvalues --    1.78231   1.78770   1.78974   1.79159   1.79455
 Alpha virt. eigenvalues --    1.80552   1.81213   1.81414   1.82360   1.82531
 Alpha virt. eigenvalues --    1.82906   1.83492   1.83875   1.84243   1.84843
 Alpha virt. eigenvalues --    1.84894   1.85398   1.85918   1.86240   1.86496
 Alpha virt. eigenvalues --    1.87839   1.88072   1.88263   1.88783   1.88965
 Alpha virt. eigenvalues --    1.89416   1.89703   1.90348   1.90563   1.91412
 Alpha virt. eigenvalues --    1.91809   1.92265   1.93327   1.93600   1.93692
 Alpha virt. eigenvalues --    1.94017   1.94125   1.95427   1.95631   1.96260
 Alpha virt. eigenvalues --    1.96361   1.96996   1.97926   1.98302   1.99022
 Alpha virt. eigenvalues --    1.99469   2.00266   2.00499   2.01445   2.02104
 Alpha virt. eigenvalues --    2.02832   2.03164   2.03565   2.04503   2.05311
 Alpha virt. eigenvalues --    2.05998   2.06342   2.06968   2.07219   2.07508
 Alpha virt. eigenvalues --    2.08738   2.09016   2.09742   2.10375   2.10700
 Alpha virt. eigenvalues --    2.11817   2.12282   2.12477   2.13388   2.13552
 Alpha virt. eigenvalues --    2.14079   2.14178   2.15042   2.15399   2.15714
 Alpha virt. eigenvalues --    2.16238   2.16499   2.17063   2.17495   2.17758
 Alpha virt. eigenvalues --    2.18296   2.18914   2.19158   2.19394   2.20175
 Alpha virt. eigenvalues --    2.20515   2.20999   2.21488   2.21723   2.22453
 Alpha virt. eigenvalues --    2.23143   2.23742   2.24015   2.24634   2.25137
 Alpha virt. eigenvalues --    2.25646   2.25993   2.26354   2.26756   2.27958
 Alpha virt. eigenvalues --    2.28438   2.28603   2.29287   2.29670   2.30206
 Alpha virt. eigenvalues --    2.31302   2.31699   2.32102   2.32854   2.33125
 Alpha virt. eigenvalues --    2.33341   2.34094   2.34839   2.35491   2.35655
 Alpha virt. eigenvalues --    2.36871   2.37094   2.37299   2.37724   2.38412
 Alpha virt. eigenvalues --    2.38648   2.39183   2.39437   2.39875   2.40603
 Alpha virt. eigenvalues --    2.41300   2.41490   2.41709   2.42953   2.43586
 Alpha virt. eigenvalues --    2.43718   2.44485   2.44797   2.45400   2.45753
 Alpha virt. eigenvalues --    2.46058   2.47373   2.47947   2.48109   2.48873
 Alpha virt. eigenvalues --    2.49438   2.50791   2.51569   2.52514   2.53797
 Alpha virt. eigenvalues --    2.55352   2.57197   2.57953   2.59224   2.59620
 Alpha virt. eigenvalues --    2.61251   2.61314   2.61753   2.62778   2.63190
 Alpha virt. eigenvalues --    2.64336   2.64756   2.65528   2.65591   2.66715
 Alpha virt. eigenvalues --    2.67711   2.68801   2.69308   2.73641   2.74696
 Alpha virt. eigenvalues --    2.75289   2.75509   2.76344   2.77483   2.77677
 Alpha virt. eigenvalues --    2.79452   2.79605   2.80509   2.80830   2.81486
 Alpha virt. eigenvalues --    2.82517   2.82878   2.83253   2.85390   2.87363
 Alpha virt. eigenvalues --    2.89244   2.90977   2.92154   2.93563   2.94263
 Alpha virt. eigenvalues --    2.95232   2.96399   2.97175   3.02624   3.02941
 Alpha virt. eigenvalues --    3.04627   3.05142   3.06036   3.06521   3.07576
 Alpha virt. eigenvalues --    3.08474   3.08987   3.10587   3.10781   3.11379
 Alpha virt. eigenvalues --    3.11668   3.14013   3.14347   3.14739   3.15679
 Alpha virt. eigenvalues --    3.15867   3.16657   3.16713   3.17012   3.17357
 Alpha virt. eigenvalues --    3.17521   3.18321   3.18550   3.18852   3.19376
 Alpha virt. eigenvalues --    3.19570   3.19995   3.20460   3.20936   3.21323
 Alpha virt. eigenvalues --    3.22929   3.23707   3.24688   3.25789   3.26567
 Alpha virt. eigenvalues --    3.27286   3.27796   3.28609   3.29129   3.29985
 Alpha virt. eigenvalues --    3.30779   3.31043   3.32003   3.32533   3.33725
 Alpha virt. eigenvalues --    3.34458   3.35281   3.36157   3.39080   3.42712
 Alpha virt. eigenvalues --    3.47120   3.48774   3.49584   3.52117   3.54031
 Alpha virt. eigenvalues --    3.55555   3.55730   3.61111   3.69317   3.77341
 Alpha virt. eigenvalues --    3.83104   3.86642   3.87201   3.88960   3.90686
 Alpha virt. eigenvalues --    3.90956   3.92229   3.93381   3.95582   3.96570
 Alpha virt. eigenvalues --    3.98859   4.15334   4.15978   4.18029   4.18945
 Alpha virt. eigenvalues --    4.20244   4.20639   4.21299   4.22163   4.23523
 Alpha virt. eigenvalues --    4.24716   4.29526   4.32385   4.37771   4.38800
 Alpha virt. eigenvalues --    4.41846   4.42905   4.44879   4.45952   5.41559
 Alpha virt. eigenvalues --    5.42886   5.49618   5.52760   5.56217   5.58919
 Alpha virt. eigenvalues --    5.65640   5.70511   5.79891   5.82761   5.93486
 Alpha virt. eigenvalues --    5.98696   6.65778   6.67319   6.68584   6.69641
 Alpha virt. eigenvalues --    6.69960   6.70101   6.70830   6.71780   6.72112
 Alpha virt. eigenvalues --    6.72944   6.73346   6.73967   6.74356   6.75271
 Alpha virt. eigenvalues --    6.75489   6.77351   6.80428   6.80806   6.82246
 Alpha virt. eigenvalues --    6.82935   6.85868   6.86639   6.88497   6.89436
 Alpha virt. eigenvalues --    6.91101   6.91542   6.92498   6.93079   6.93430
 Alpha virt. eigenvalues --    6.95222   6.96078   6.98027   6.98653   6.99539
 Alpha virt. eigenvalues --    7.01387   7.01760   7.02444   7.04414   7.05570
 Alpha virt. eigenvalues --    7.05864   7.61064   7.64157   7.65073   7.65732
 Alpha virt. eigenvalues --    7.67752   7.68280   8.47118   8.47306   8.47482
 Alpha virt. eigenvalues --    8.47682   8.47873   8.48192   8.48562   8.48785
 Alpha virt. eigenvalues --    8.49095   8.49332   8.49555   8.49641   8.50431
 Alpha virt. eigenvalues --    8.50935   8.53569   8.53894   8.56462   8.56871
 Alpha virt. eigenvalues --    8.83864   8.85713   9.81696   9.81832   9.82417
 Alpha virt. eigenvalues --    9.82752   9.82932   9.83733   9.83812   9.84754
 Alpha virt. eigenvalues --    9.84913   9.85321   9.87636   9.88027   9.88828
 Alpha virt. eigenvalues --    9.89714   9.90028   9.90431   9.91051   9.93068
 Alpha virt. eigenvalues --    9.94493   9.95574   9.97016   9.99278  10.00169
 Alpha virt. eigenvalues --   10.01403  10.02270  10.03166  10.03324  10.03792
 Alpha virt. eigenvalues --   10.05444  10.09772  10.12154  10.13856  10.15727
 Alpha virt. eigenvalues --   10.20300  13.98385  14.00873  15.53751  15.56061
 Alpha virt. eigenvalues --   16.69713  16.70328  16.72721  16.74485  16.79706
 Alpha virt. eigenvalues --   16.87212  16.94025  16.98416  17.02068  17.05106
 Alpha virt. eigenvalues --   17.05474  17.06312  17.06441  17.09196  17.11283
 Alpha virt. eigenvalues --   17.13171  17.16734  17.18178  17.19551  17.21433
 Alpha virt. eigenvalues --   20.90725  20.95080  21.05051  21.06813  21.17114
 Alpha virt. eigenvalues --   21.21191  25.41814  25.43222  25.48041  25.50392
 Alpha virt. eigenvalues --   25.54303  25.55477  25.99432  26.01922  31.62817
 Alpha virt. eigenvalues --   31.64502  31.65759  31.66328  31.70278  31.70667
 Alpha virt. eigenvalues --   31.72234  31.72537  31.75159  31.75717  42.89381
 Alpha virt. eigenvalues --   42.90268  42.92282  42.92832  42.93547  42.95514
 Alpha virt. eigenvalues --   42.97312  43.02745  43.07262  43.08834  61.70890
 Alpha virt. eigenvalues --   61.73012  62.91219  62.93429  78.02255  78.02766
 Alpha virt. eigenvalues --   78.04993  78.06492  78.11252  78.18265  78.24319
 Alpha virt. eigenvalues --   78.27954  82.03700  82.06651  86.05098  86.08643
 Alpha virt. eigenvalues --   86.16966  86.18524  86.26860  86.29943  89.27150
 Alpha virt. eigenvalues --   89.29693  89.31068  89.31584  89.32089  89.34822
 Alpha virt. eigenvalues --   89.36282  89.38062  89.42278  89.44011  89.45506
 Alpha virt. eigenvalues --   89.47189 121.78119 121.79128 121.82661 121.84222
 Alpha virt. eigenvalues --  121.87189 121.88214 239.09943 239.11915 257.15828
 Alpha virt. eigenvalues --  257.18583 332.03264 332.05479 428.67290 428.69975
 Alpha virt. eigenvalues --  428.76648 428.77895 428.84319 428.86743 431.63730
 Alpha virt. eigenvalues --  431.64289 431.66678 431.68239 431.73343 431.80645
 Alpha virt. eigenvalues --  431.86993 431.90718 590.16098 590.16906 590.19613
 Alpha virt. eigenvalues --  590.20856 590.23081 590.23903 772.84674 772.87231
 Alpha virt. eigenvalues --  839.50602 839.523762068.457352068.481032529.88811
 Alpha virt. eigenvalues -- 2529.904185495.266945495.28891********************
 Alpha virt. eigenvalues -- ****************************************
          Condensed to atoms (all electrons):
 Mulliken atomic charges:
              1
     1  Pt   0.381470
     2  Cl  -0.501587
     3  Cl  -0.455974
     4  Sn   0.375067
     5  Cl  -0.193698
     6  Cl  -0.138845
     7  Cl  -0.202646
     8  P    0.197927
     9  C   -0.388920
    10  H    0.118940
    11  H    0.087088
    12  C   -0.119417
    13  H    0.111334
    14  H    0.065772
    15  H    0.136059
    16  C   -0.334189
    17  H    0.089214
    18  H    0.110778
    19  C   -0.125760
    20  H    0.101364
    21  H    0.069949
    22  H    0.138807
    23  C   -0.366980
    24  H    0.115925
    25  H    0.091226
    26  C   -0.168954
    27  H    0.132671
    28  H    0.122399
    29  H    0.081747
    30  Pt   0.360554
    31  Sn   0.373189
    32  Cl  -0.161668
    33  Cl  -0.192838
    34  Cl  -0.160979
    35  P    0.116811
    36  C   -0.388617
    37  H    0.114688
    38  H    0.097509
    39  C   -0.109879
    40  H    0.100361
    41  H    0.071480
    42  H    0.135916
    43  C   -0.389188
    44  H    0.090075
    45  H    0.123983
    46  C   -0.098869
    47  H    0.121110
    48  H    0.068071
    49  H    0.113043
    50  C   -0.257061
    51  H    0.071454
    52  H    0.092798
    53  C   -0.199755
    54  H    0.115746
    55  H    0.143093
    56  H    0.118206
 Sum of Mulliken atomic charges =   0.00000
 Mulliken charges with hydrogens summed into heavy atoms:
              1
     1  Pt   0.381470
     2  Cl  -0.501587
     3  Cl  -0.455974
     4  Sn   0.375067
     5  Cl  -0.193698
     6  Cl  -0.138845
     7  Cl  -0.202646
     8  P    0.197927
     9  C   -0.182892
    12  C    0.193748
    16  C   -0.134197
    19  C    0.184360
    23  C   -0.159830
    26  C    0.167863
    30  Pt   0.360554
    31  Sn   0.373189
    32  Cl  -0.161668
    33  Cl  -0.192838
    34  Cl  -0.160979
    35  P    0.116811
    36  C   -0.176420
    39  C    0.197878
    43  C   -0.175130
    46  C    0.203356
    50  C   -0.092809
    53  C    0.177290
 Sum of Mulliken charges with hydrogens summed into heavy atoms =   0.00000
 Electronic spatial extent (au):  <R**2>=          28573.4445
 Charge=              0.0000 electrons
 Dipole moment (field-independent basis, Debye):
    X=              1.5588    Y=              0.0116    Z=              0.4874  Tot=              1.6333
 Quadrupole moment (field-independent basis, Debye-Ang):
   XX=           -356.2835   YY=           -298.6470   ZZ=           -325.4574
   XY=             91.9141   XZ=             -6.1975   YZ=             -0.4240
 Traceless Quadrupole moment (field-independent basis, Debye-Ang):
   XX=            -29.4876   YY=             28.1490   ZZ=              1.3386
   XY=             91.9141   XZ=             -6.1975   YZ=             -0.4240
 Octapole moment (field-independent basis, Debye-Ang**2):
  XXX=             41.5117  YYY=             -9.3108  ZZZ=            -80.6978  XYY=             -0.1913
  XXY=             -3.9139  XXZ=            -74.8634  XZZ=             15.6815  YZZ=              5.7453
  YYZ=            -22.6284  XYZ=              8.7307
 Hexadecapole moment (field-independent basis, Debye-Ang**3):
 XXXX=         -23384.8002 YYYY=          -9098.6760 ZZZZ=          -3265.1248 XXXY=           1259.6071
 XXXZ=            -43.6064 YYYX=            562.7677 YYYZ=            -29.4549 ZZZX=            -50.7992
 ZZZY=            -22.3584 XXYY=          -5101.9168 XXZZ=          -4277.2446 YYZZ=          -2128.3922
 XXYZ=              2.4031 YYXZ=              6.9469 ZZXY=            156.3097
 N-N= 1.539654854105D+04 E-N=-1.515609644677D+05  KE= 5.021907585765D+04
 Calculating spin-rotation constants.
 Leave Link  601 at Sat Jun 15 03:07:02 2019, MaxMem=13421772800 cpu:   17049.2
 (Enter /home/scr/programs/g09/l9999.exe)
 1\1\GINC-NEQC33\SP\RPBEPBE\Gen\C12H30Cl8P2Pt2Sn2\GUEST1\15-Jun-2019\0\
 \#PBEPBE/gen scf=(maxcycle=500,conver=4) NMR=GIAO Scrf=(solvent=Dichlo
 romethane)\\estrutura 45\\0,1\Pt,0,-1.677246,-0.452733,-0.457851\Cl,0,
 0.421992,-1.606408,-1.163395\Cl,0,-0.438848,1.552952,-1.358839\Sn,0,-3
 .57695,1.192051,0.171183\Cl,0,-4.975599,1.807815,-1.693899\Cl,0,-2.895
 175,3.350892,0.978538\Cl,0,-5.256856,0.728644,1.842227\P,0,-2.693519,-
 2.37061,0.28499\C,0,-4.185853,-2.876249,-0.683006\H,0,-4.293551,-3.962
 108,-0.506753\H,0,-3.898443,-2.751063,-1.739073\C,0,-5.515352,-2.17096
 1,-0.4049\H,0,-5.853903,-2.312121,0.63038\H,0,-5.47868,-1.091414,-0.61
 1682\H,0,-6.285543,-2.59253,-1.070637\C,0,-3.153722,-2.338847,2.067936
 \H,0,-3.946602,-1.58831,2.191582\H,0,-3.593243,-3.327083,2.28993\C,0,-
 1.975215,-2.038473,3.003299\H,0,-1.168619,-2.780082,2.915132\H,0,-1.54
 6806,-1.046055,2.792609\H,0,-2.319259,-2.042936,4.050083\C,0,-1.578575
 ,-3.850235,0.161764\H,0,-1.979363,-4.558987,0.904258\H,0,-0.590785,-3.
 532925,0.520462\C,0,-1.464158,-4.522439,-1.207547\H,0,-0.740355,-5.351
 949,-1.143192\H,0,-2.423069,-4.945407,-1.543141\H,0,-1.104941,-3.82652
 4,-1.980367\Pt,0,1.690813,0.44954,-0.513011\Sn,0,3.461289,-1.224362,0.
 329328\Cl,0,3.873435,-3.046372,-1.17938\Cl,0,2.739314,-2.375999,2.3166
 62\Cl,0,5.749113,-0.690049,0.892312\P,0,2.817218,2.396495,-0.06904\C,0
 ,3.842234,2.888919,-1.524445\H,0,4.301367,3.863893,-1.279126\H,0,3.111
 656,3.078898,-2.330705\C,0,4.894214,1.880866,-1.988025\H,0,5.658356,1.
 687087,-1.221917\H,0,4.43545,0.918958,-2.258965\H,0,5.403689,2.265162,
 -2.88584\C,0,1.66143,3.82097,0.140734\H,0,0.998066,3.807162,-0.73735\H
 ,0,2.275547,4.734318,0.062014\C,0,0.847809,3.816555,1.436006\H,0,0.113
 217,4.638226,1.410144\H,0,0.291593,2.875958,1.571629\H,0,1.483192,3.97
 3075,2.320555\C,0,3.872681,2.395368,1.446338\H,0,4.591521,1.569306,1.3
 48662\H,0,3.194024,2.117803,2.270029\C,0,4.6068,3.706068,1.750617\H,0,
 3.926051,4.566397,1.823038\H,0,5.136452,3.617013,2.712437\H,0,5.363219
 ,3.938295,0.983842\\Version=EM64L-G09RevA.02\State=1-A\HF=-51020.07228
 28\RMSD=4.398e-05\Dipole=0.6132799,0.0045515,0.1917564\Quadrupole=-21.
 9232782,20.928082,0.9951963,68.3358987,-4.6077171,-0.3152654\PG=C01 [X
 (C12H30Cl8P2Pt2Sn2)]\\@


 IT'S WHAT A FELLER THINKS HE KNOWS THAT HURTS HIM...
                    ------
           KIN HUBBARD
 Job cpu time:  1 days 15 hours 40 minutes 14.8 seconds.
 File lengths (MBytes):  RWF=   1445 Int=      0 D2E=      0 Chk=    108 Scr=      1
 Normal termination of Gaussian 09 at Sat Jun 15 03:07:03 2019.
