 Entering Gaussian System, Link 0=g09
 Input=/home/nqtcm/diego/estrutura82.com
 Output=/home/nqtcm/diego/estrutura82.log
 Initial command:
 /scr/programas/g09/l1.exe "/scr/nqtcm/Gau-17486.inp" -scrdir="/scr/nqtcm/"
 Entering Link 1 = /scr/programas/g09/l1.exe PID=     17488.
  
 Copyright (c) 1988,1990,1992,1993,1995,1998,2003,2009,2013,
            Gaussian, Inc.  All Rights Reserved.
  
 This is part of the Gaussian(R) 09 program.  It is based on
 the Gaussian(R) 03 system (copyright 2003, Gaussian, Inc.),
 the Gaussian(R) 98 system (copyright 1998, Gaussian, Inc.),
 the Gaussian(R) 94 system (copyright 1995, Gaussian, Inc.),
 the Gaussian 92(TM) system (copyright 1992, Gaussian, Inc.),
 the Gaussian 90(TM) system (copyright 1990, Gaussian, Inc.),
 the Gaussian 88(TM) system (copyright 1988, Gaussian, Inc.),
 the Gaussian 86(TM) system (copyright 1986, Carnegie Mellon
 University), and the Gaussian 82(TM) system (copyright 1983,
 Carnegie Mellon University). Gaussian is a federally registered
 trademark of Gaussian, Inc.
  
 This software contains proprietary and confidential information,
 including trade secrets, belonging to Gaussian, Inc.
  
 This software is provided under written license and may be
 used, copied, transmitted, or stored only in accord with that
 written license.
  
 The following legend is applicable only to US Government
 contracts under FAR:
  
                    RESTRICTED RIGHTS LEGEND
  
 Use, reproduction and disclosure by the US Government is
 subject to restrictions as set forth in subparagraphs (a)
 and (c) of the Commercial Computer Software - Restricted
 Rights clause in FAR 52.227-19.
  
 Gaussian, Inc.
 340 Quinnipiac St., Bldg. 40, Wallingford CT 06492
  
  
 ---------------------------------------------------------------
 Warning -- This program may not be used in any manner that
 competes with the business of Gaussian, Inc. or will provide
 assistance to any competitor of Gaussian, Inc.  The licensee
 of this program is prohibited from giving any competitor of
 Gaussian, Inc. access to this program.  By using this program,
 the user acknowledges that Gaussian, Inc. is engaged in the
 business of creating and licensing software in the field of
 computational chemistry and represents and warrants to the
 licensee that it is not a competitor of Gaussian, Inc. and that
 it will not use this program in any manner prohibited above.
 ---------------------------------------------------------------
  

 Cite this work as:
 Gaussian 09, Revision D.01,
 M. J. Frisch, G. W. Trucks, H. B. Schlegel, G. E. Scuseria, 
 M. A. Robb, J. R. Cheeseman, G. Scalmani, V. Barone, B. Mennucci, 
 G. A. Petersson, H. Nakatsuji, M. Caricato, X. Li, H. P. Hratchian, 
 A. F. Izmaylov, J. Bloino, G. Zheng, J. L. Sonnenberg, M. Hada, 
 M. Ehara, K. Toyota, R. Fukuda, J. Hasegawa, M. Ishida, T. Nakajima, 
 Y. Honda, O. Kitao, H. Nakai, T. Vreven, J. A. Montgomery, Jr., 
 J. E. Peralta, F. Ogliaro, M. Bearpark, J. J. Heyd, E. Brothers, 
 K. N. Kudin, V. N. Staroverov, T. Keith, R. Kobayashi, J. Normand, 
 K. Raghavachari, A. Rendell, J. C. Burant, S. S. Iyengar, J. Tomasi, 
 M. Cossi, N. Rega, J. M. Millam, M. Klene, J. E. Knox, J. B. Cross, 
 V. Bakken, C. Adamo, J. Jaramillo, R. Gomperts, R. E. Stratmann, 
 O. Yazyev, A. J. Austin, R. Cammi, C. Pomelli, J. W. Ochterski, 
 R. L. Martin, K. Morokuma, V. G. Zakrzewski, G. A. Voth, 
 P. Salvador, J. J. Dannenberg, S. Dapprich, A. D. Daniels, 
 O. Farkas, J. B. Foresman, J. V. Ortiz, J. Cioslowski, 
 and D. J. Fox, Gaussian, Inc., Wallingford CT, 2013.
 
 ******************************************
 Gaussian 09:  EM64L-G09RevD.01 24-Apr-2013
                26-Aug-2019 
 ******************************************
 %mem=7Gb
 %nproc=4
 Will use up to    4 processors via shared memory.
 ----------------------------------------------------------------------
 #PBEPBE/gen scf=(maxcycle=500,conver=4) NMR=GIAO Scrf=(solvent=Dichlor
 omethane)
 ----------------------------------------------------------------------
 1/38=1/1;
 2/12=2,17=6,18=5,40=1/2;
 3/5=7,11=2,16=1,25=1,30=1,70=2201,72=9,74=1009/1,2,8,3;
 4//1;
 5/5=2,6=4,7=500,38=5,53=9/2;
 8/6=1,10=90,11=11/1;
 10/13=100,45=16/2;
 6/7=2,8=2,9=2,10=2,28=1/1;
 99/9=1/99;
 Leave Link    1 at Mon Aug 26 04:51:04 2019, MaxMem=   939524096 cpu:         0.2
 (Enter /scr/programas/g09/l101.exe)
 ------------
 estrutura 82
 ------------
 Symbolic Z-matrix:
 Charge =  0 Multiplicity = 1
 Pt                   -0.35419  -0.03613  -0.12399 
 P                    -0.18739   2.36986  -0.20094 
 P                    -0.62457  -2.41369  -0.02717 
 C                    -0.13898   3.00278   1.53957 
 H                     0.63258   2.39457   2.03842 
 H                    -1.10316   2.70038   1.98128 
 C                     0.13132   4.49278   1.77185 
 H                    -0.58226   5.14191   1.24114 
 H                     0.04752   4.72048   2.84684 
 H                     1.14738   4.77441   1.45798 
 C                     1.38861   2.93604  -1.0235 
 H                     1.58695   2.21738  -1.83352 
 C                    -1.52801   3.31445  -1.07955 
 H                    -1.07588   4.26155  -1.40898 
 H                    -1.75111   2.7393   -1.99212 
 C                    -2.81496   3.61067  -0.30462 
 H                    -3.52337   4.13445  -0.96693 
 H                    -3.3067    2.69872   0.05738 
 H                    -2.62967   4.26824   0.55889 
 C                     0.411    -3.33746  -1.25321 
 H                     0.20986  -4.41272  -1.11757 
 H                     1.45973  -3.18278  -0.95059 
 C                     0.18884  -2.91419  -2.70701 
 H                    -0.83176  -3.13918  -3.05336 
 H                     0.35877  -1.83439  -2.84001 
 H                     0.8882   -3.44949  -3.36804 
 C                    -2.35493  -3.0198   -0.31248 
 H                    -2.96859  -2.55883   0.47794 
 H                    -2.69595  -2.55232  -1.24966 
 C                    -2.55789  -4.53602  -0.35201 
 H                    -3.63099  -4.75976  -0.46445 
 H                    -2.03733  -5.00567  -1.20018 
 H                    -2.21855  -5.03117   0.57175 
 C                    -0.12528  -3.13288   1.60641 
 H                    -0.38398  -4.2046    1.5919 
 H                     0.97465  -3.07456   1.64248 
 C                    -0.7396   -2.43424   2.82277 
 H                    -0.43603  -2.94944   3.74848 
 H                    -0.39964  -1.38798   2.89226 
 H                    -1.84169  -2.4305    2.79266 
 Sn                    2.35907  -0.27434   0.13502 
 Cl                    3.77744   0.14016  -1.82496 
 Cl                    3.44774   1.24293   1.74622 
 Cl                    3.49665  -2.33021   0.86935 
 C                     1.48728   4.36394  -1.56998 
 H                     2.51202   4.53744  -1.93601 
 H                     0.80815   4.53079  -2.41967 
 H                     1.27483   5.12853  -0.80835 
 H                     2.17171   2.76534  -0.26672 
 C                    -2.39453   0.14125  -0.30216 
 C                    -3.21512   0.18227   0.83657 
 C                    -3.00646   0.18964  -1.56727 
 C                    -4.61833   0.26612   0.74425 
 H                    -2.76395   0.14743   1.83373 
 C                    -4.39925   0.27279  -1.67657 
 H                    -2.4008    0.15307  -2.47754 
 C                    -5.20179   0.3086   -0.5312 
 H                    -4.86338   0.30542  -2.6669 
 H                    -6.28969   0.36949  -0.62829 
 C                    -5.46302   0.33005   1.9953 
 H                    -5.35492   1.30661   2.49847 
 H                    -5.16343  -0.43978   2.72509 
 H                    -6.53119   0.19076   1.77011 
 
 NAtoms=     63 NQM=       63 NQMF=       0 NMMI=      0 NMMIF=      0
                NMic=       0 NMicF=      0.
                    Isotopes and Nuclear Properties:
 (Nuclear quadrupole moments (NQMom) in fm**2, nuclear magnetic moments (NMagM)
  in nuclear magnetons)

  Atom         1           2           3           4           5           6           7           8           9          10
 IAtWgt=         195          31          31          12           1           1          12           1           1           1
 AtmWgt= 194.9648000  30.9737634  30.9737634  12.0000000   1.0078250   1.0078250  12.0000000   1.0078250   1.0078250   1.0078250
 NucSpn=           1           1           1           0           1           1           0           1           1           1
 AtZEff=   0.0000000   0.0000000   0.0000000   0.0000000   0.0000000   0.0000000   0.0000000   0.0000000   0.0000000   0.0000000
 NQMom=    0.0000000   0.0000000   0.0000000   0.0000000   0.0000000   0.0000000   0.0000000   0.0000000   0.0000000   0.0000000
 NMagM=    0.6095000   1.1316000   1.1316000   0.0000000   2.7928460   2.7928460   0.0000000   2.7928460   2.7928460   2.7928460
 AtZNuc=  78.0000000  15.0000000  15.0000000   6.0000000   1.0000000   1.0000000   6.0000000   1.0000000   1.0000000   1.0000000

  Atom        11          12          13          14          15          16          17          18          19          20
 IAtWgt=          12           1          12           1           1          12           1           1           1          12
 AtmWgt=  12.0000000   1.0078250  12.0000000   1.0078250   1.0078250  12.0000000   1.0078250   1.0078250   1.0078250  12.0000000
 NucSpn=           0           1           0           1           1           0           1           1           1           0
 AtZEff=   0.0000000   0.0000000   0.0000000   0.0000000   0.0000000   0.0000000   0.0000000   0.0000000   0.0000000   0.0000000
 NQMom=    0.0000000   0.0000000   0.0000000   0.0000000   0.0000000   0.0000000   0.0000000   0.0000000   0.0000000   0.0000000
 NMagM=    0.0000000   2.7928460   0.0000000   2.7928460   2.7928460   0.0000000   2.7928460   2.7928460   2.7928460   0.0000000
 AtZNuc=   6.0000000   1.0000000   6.0000000   1.0000000   1.0000000   6.0000000   1.0000000   1.0000000   1.0000000   6.0000000

  Atom        21          22          23          24          25          26          27          28          29          30
 IAtWgt=           1           1          12           1           1           1          12           1           1          12
 AtmWgt=   1.0078250   1.0078250  12.0000000   1.0078250   1.0078250   1.0078250  12.0000000   1.0078250   1.0078250  12.0000000
 NucSpn=           1           1           0           1           1           1           0           1           1           0
 AtZEff=   0.0000000   0.0000000   0.0000000   0.0000000   0.0000000   0.0000000   0.0000000   0.0000000   0.0000000   0.0000000
 NQMom=    0.0000000   0.0000000   0.0000000   0.0000000   0.0000000   0.0000000   0.0000000   0.0000000   0.0000000   0.0000000
 NMagM=    2.7928460   2.7928460   0.0000000   2.7928460   2.7928460   2.7928460   0.0000000   2.7928460   2.7928460   0.0000000
 AtZNuc=   1.0000000   1.0000000   6.0000000   1.0000000   1.0000000   1.0000000   6.0000000   1.0000000   1.0000000   6.0000000

  Atom        31          32          33          34          35          36          37          38          39          40
 IAtWgt=           1           1           1          12           1           1          12           1           1           1
 AtmWgt=   1.0078250   1.0078250   1.0078250  12.0000000   1.0078250   1.0078250  12.0000000   1.0078250   1.0078250   1.0078250
 NucSpn=           1           1           1           0           1           1           0           1           1           1
 AtZEff=   0.0000000   0.0000000   0.0000000   0.0000000   0.0000000   0.0000000   0.0000000   0.0000000   0.0000000   0.0000000
 NQMom=    0.0000000   0.0000000   0.0000000   0.0000000   0.0000000   0.0000000   0.0000000   0.0000000   0.0000000   0.0000000
 NMagM=    2.7928460   2.7928460   2.7928460   0.0000000   2.7928460   2.7928460   0.0000000   2.7928460   2.7928460   2.7928460
 AtZNuc=   1.0000000   1.0000000   1.0000000   6.0000000   1.0000000   1.0000000   6.0000000   1.0000000   1.0000000   1.0000000

  Atom        41          42          43          44          45          46          47          48          49          50
 IAtWgt=         118          35          35          35          12           1           1           1           1          12
 AtmWgt= 117.9018000  34.9688527  34.9688527  34.9688527  12.0000000   1.0078250   1.0078250   1.0078250   1.0078250  12.0000000
 NucSpn=           0           3           3           3           0           1           1           1           1           0
 AtZEff=   0.0000000   0.0000000   0.0000000   0.0000000   0.0000000   0.0000000   0.0000000   0.0000000   0.0000000   0.0000000
 NQMom=    0.0000000  -8.1650000  -8.1650000  -8.1650000   0.0000000   0.0000000   0.0000000   0.0000000   0.0000000   0.0000000
 NMagM=    0.0000000   0.8218740   0.8218740   0.8218740   0.0000000   2.7928460   2.7928460   2.7928460   2.7928460   0.0000000
 AtZNuc=  50.0000000  17.0000000  17.0000000  17.0000000   6.0000000   1.0000000   1.0000000   1.0000000   1.0000000   6.0000000

  Atom        51          52          53          54          55          56          57          58          59          60
 IAtWgt=          12          12          12           1          12           1          12           1           1          12
 AtmWgt=  12.0000000  12.0000000  12.0000000   1.0078250  12.0000000   1.0078250  12.0000000   1.0078250   1.0078250  12.0000000
 NucSpn=           0           0           0           1           0           1           0           1           1           0
 AtZEff=   0.0000000   0.0000000   0.0000000   0.0000000   0.0000000   0.0000000   0.0000000   0.0000000   0.0000000   0.0000000
 NQMom=    0.0000000   0.0000000   0.0000000   0.0000000   0.0000000   0.0000000   0.0000000   0.0000000   0.0000000   0.0000000
 NMagM=    0.0000000   0.0000000   0.0000000   2.7928460   0.0000000   2.7928460   0.0000000   2.7928460   2.7928460   0.0000000
 AtZNuc=   6.0000000   6.0000000   6.0000000   1.0000000   6.0000000   1.0000000   6.0000000   1.0000000   1.0000000   6.0000000

  Atom        61          62          63
 IAtWgt=           1           1           1
 AtmWgt=   1.0078250   1.0078250   1.0078250
 NucSpn=           1           1           1
 AtZEff=   0.0000000   0.0000000   0.0000000
 NQMom=    0.0000000   0.0000000   0.0000000
 NMagM=    2.7928460   2.7928460   2.7928460
 AtZNuc=   1.0000000   1.0000000   1.0000000
 Leave Link  101 at Mon Aug 26 04:51:04 2019, MaxMem=   939524096 cpu:         0.6
 (Enter /scr/programas/g09/l202.exe)
 Stoichiometry    C19H37Cl3P2PtSn
 Framework group  C1[X(C19H37Cl3P2PtSn)]
 Deg. of freedom   183
 Full point group                 C1      NOp   1
 Largest Abelian subgroup         C1      NOp   1
 Largest concise Abelian subgroup C1      NOp   1
                         Standard orientation:                         
 ---------------------------------------------------------------------
 Center     Atomic      Atomic             Coordinates (Angstroms)
 Number     Number       Type             X           Y           Z
 ---------------------------------------------------------------------
      1         78           0       -0.354190   -0.036133   -0.123987
      2         15           0       -0.187391    2.369861   -0.200935
      3         15           0       -0.624571   -2.413693   -0.027168
      4          6           0       -0.138980    3.002780    1.539568
      5          1           0        0.632583    2.394566    2.038419
      6          1           0       -1.103155    2.700383    1.981281
      7          6           0        0.131323    4.492777    1.771850
      8          1           0       -0.582255    5.141909    1.241137
      9          1           0        0.047522    4.720484    2.846844
     10          1           0        1.147385    4.774412    1.457975
     11          6           0        1.388613    2.936043   -1.023499
     12          1           0        1.586954    2.217378   -1.833515
     13          6           0       -1.528006    3.314448   -1.079552
     14          1           0       -1.075877    4.261554   -1.408975
     15          1           0       -1.751114    2.739301   -1.992121
     16          6           0       -2.814960    3.610669   -0.304615
     17          1           0       -3.523368    4.134450   -0.966931
     18          1           0       -3.306704    2.698724    0.057381
     19          1           0       -2.629664    4.268243    0.558893
     20          6           0        0.411002   -3.337458   -1.253212
     21          1           0        0.209864   -4.412719   -1.117569
     22          1           0        1.459727   -3.182783   -0.950591
     23          6           0        0.188836   -2.914186   -2.707007
     24          1           0       -0.831762   -3.139179   -3.053365
     25          1           0        0.358770   -1.834389   -2.840013
     26          1           0        0.888204   -3.449488   -3.368042
     27          6           0       -2.354930   -3.019804   -0.312478
     28          1           0       -2.968592   -2.558825    0.477942
     29          1           0       -2.695946   -2.552320   -1.249663
     30          6           0       -2.557887   -4.536016   -0.352007
     31          1           0       -3.630993   -4.759762   -0.464453
     32          1           0       -2.037326   -5.005669   -1.200176
     33          1           0       -2.218554   -5.031168    0.571753
     34          6           0       -0.125281   -3.132884    1.606405
     35          1           0       -0.383977   -4.204605    1.591900
     36          1           0        0.974648   -3.074559    1.642479
     37          6           0       -0.739595   -2.434235    2.822772
     38          1           0       -0.436027   -2.949441    3.748479
     39          1           0       -0.399642   -1.387983    2.892261
     40          1           0       -1.841689   -2.430502    2.792657
     41         50           0        2.359066   -0.274339    0.135022
     42         17           0        3.777441    0.140163   -1.824961
     43         17           0        3.447739    1.242930    1.746223
     44         17           0        3.496647   -2.330212    0.869354
     45          6           0        1.487277    4.363938   -1.569976
     46          1           0        2.512018    4.537441   -1.936014
     47          1           0        0.808152    4.530794   -2.419672
     48          1           0        1.274829    5.128531   -0.808352
     49          1           0        2.171707    2.765341   -0.266721
     50          6           0       -2.394531    0.141250   -0.302156
     51          6           0       -3.215120    0.182269    0.836571
     52          6           0       -3.006457    0.189638   -1.567270
     53          6           0       -4.618328    0.266120    0.744254
     54          1           0       -2.763947    0.147434    1.833728
     55          6           0       -4.399248    0.272785   -1.676572
     56          1           0       -2.400795    0.153070   -2.477542
     57          6           0       -5.201793    0.308603   -0.531203
     58          1           0       -4.863383    0.305415   -2.666899
     59          1           0       -6.289694    0.369495   -0.628293
     60          6           0       -5.463018    0.330050    1.995303
     61          1           0       -5.354923    1.306605    2.498471
     62          1           0       -5.163432   -0.439779    2.725089
     63          1           0       -6.531185    0.190758    1.770110
 ---------------------------------------------------------------------
 Rotational constants (GHZ):      0.1374392      0.1011674      0.0733454
 Leave Link  202 at Mon Aug 26 04:51:04 2019, MaxMem=   939524096 cpu:         0.0
 (Enter /scr/programas/g09/l301.exe)
 General basis read from cards:  (5D, 7F)
 Centers:       5      6      8      9     10     12     14     15     17     18
 Centers:      19     21     22     24     25     26     28     29     31     32
 Centers:      33     35     36     38     39     40     46     47     48     49
 Centers:      54     56     58     59     61     62     63
 S 5 1.00
     Exponent=  2.8295215633D+02 Coefficients=  4.3000000000D-04
     Exponent=  8.7062201949D+01 Coefficients=  5.1000000000D-04
     Exponent=  2.6788369830D+01 Coefficients=  6.1600000000D-03
     Exponent=  8.2425753324D+00 Coefficients=  1.3030000000D-02
     Exponent=  2.5361770254D+00 Coefficients=  9.9490000000D-02
 S 1 1.00
     Exponent=  7.8036216165D-01 Coefficients=  1.0000000000D+00
 S 1 1.00
     Exponent=  2.4011143435D-01 Coefficients=  1.0000000000D+00
 P 1 1.00
     Exponent=  8.8150000000D-01 Coefficients=  1.0000000000D+00
 P 1 1.00
     Exponent=  1.7989200000D-01 Coefficients=  1.0000000000D+00
 ****
 Centers:       4      7     11     13     16     20     23     27     30     34
 Centers:      37     45     50     51     52     53     55     57     60
 S 6 1.00
     Exponent=  8.8461235339D+03 Coefficients=  5.3000000000D-04
     Exponent=  2.9487078446D+03 Coefficients=  7.7000000000D-04
     Exponent=  9.8290261488D+02 Coefficients=  4.0500000000D-03
     Exponent=  3.2763420496D+02 Coefficients=  1.4030000000D-02
     Exponent=  1.0921140165D+02 Coefficients=  5.3450000000D-02
     Exponent=  3.6403800551D+01 Coefficients=  1.7027000000D-01
 S 1 1.00
     Exponent=  1.2134600184D+01 Coefficients=  1.0000000000D+00
 S 1 1.00
     Exponent=  4.0448667279D+00 Coefficients=  1.0000000000D+00
 S 1 1.00
     Exponent=  1.3482889093D+00 Coefficients=  1.0000000000D+00
 S 1 1.00
     Exponent=  4.4942963643D-01 Coefficients=  1.0000000000D+00
 S 1 1.00
     Exponent=  1.4980987881D-01 Coefficients=  1.0000000000D+00
 P 4 1.00
     Exponent=  3.7294093393D+01 Coefficients=  3.9600000000D-03
     Exponent=  1.1475105659D+01 Coefficients=  1.8890000000D-02
     Exponent=  3.5308017414D+00 Coefficients=  9.4610000000D-02
     Exponent=  1.0864005358D+00 Coefficients=  3.1889000000D-01
 P 1 1.00
     Exponent=  3.3427708794D-01 Coefficients=  1.0000000000D+00
 P 1 1.00
     Exponent=  1.0285448860D-01 Coefficients=  1.0000000000D+00
 D 1 1.00
     Exponent=  4.7750000000D-01 Coefficients=  1.0000000000D+00
 D 1 1.00
     Exponent=  1.1998000000D-01 Coefficients=  1.0000000000D+00
 ****
 Centers:       2      3
 S 7 1.00
     Exponent=  5.9538004301D+04 Coefficients=  9.5000000000D-04
     Exponent=  2.1650183382D+04 Coefficients=  6.1000000000D-04
     Exponent=  7.8727939572D+03 Coefficients=  3.7500000000D-03
     Exponent=  2.8628341663D+03 Coefficients=  9.6300000000D-03
     Exponent=  1.0410306059D+03 Coefficients=  3.2430000000D-02
     Exponent=  3.7855658397D+02 Coefficients=  9.9500000000D-02
     Exponent=  1.3765693962D+02 Coefficients=  2.6570000000D-01
 S 1 1.00
     Exponent=  5.0057068954D+01 Coefficients=  1.0000000000D+00
 S 1 1.00
     Exponent=  1.8202570529D+01 Coefficients=  1.0000000000D+00
 S 1 1.00
     Exponent=  6.6191165560D+00 Coefficients=  1.0000000000D+00
 S 1 1.00
     Exponent=  2.4069514749D+00 Coefficients=  1.0000000000D+00
 S 1 1.00
     Exponent=  8.7525508178D-01 Coefficients=  1.0000000000D+00
 S 1 1.00
     Exponent=  3.1827457519D-01 Coefficients=  1.0000000000D+00
 S 1 1.00
     Exponent=  1.1573620916D-01 Coefficients=  1.0000000000D+00
 S 1 1.00
     Exponent=  4.2085894240D-02 Coefficients=  1.0000000000D+00
 P 5 1.00
     Exponent=  4.8799672315D+02 Coefficients=  2.1600000000D-03
     Exponent=  1.6266557438D+02 Coefficients=  9.7900000000D-03
     Exponent=  5.4221858128D+01 Coefficients=  5.4850000000D-02
     Exponent=  1.8073952709D+01 Coefficients=  2.1770000000D-01
     Exponent=  6.0246509031D+00 Coefficients=  4.8978000000D-01
 P 1 1.00
     Exponent=  2.0082169677D+00 Coefficients=  1.0000000000D+00
 P 1 1.00
     Exponent=  6.6940565590D-01 Coefficients=  1.0000000000D+00
 P 1 1.00
     Exponent=  2.2313521863D-01 Coefficients=  1.0000000000D+00
 P 1 1.00
     Exponent=  7.4378406211D-02 Coefficients=  1.0000000000D+00
 P 1 1.00
     Exponent=  2.4792802070D-02 Coefficients=  1.0000000000D+00
 D 1 1.00
     Exponent=  3.5395000000D-01 Coefficients=  1.0000000000D+00
 D 1 1.00
     Exponent=  8.9098000000D-02 Coefficients=  1.0000000000D+00
 ****
 Centers:      42     43     44
 S 7 1.00
     Exponent=  7.7142817164D+04 Coefficients=  1.0600000000D-03
     Exponent=  2.8051933514D+04 Coefficients=  6.4000000000D-04
     Exponent=  1.0200703096D+04 Coefficients=  3.9600000000D-03
     Exponent=  3.7093465804D+03 Coefficients=  9.8300000000D-03
     Exponent=  1.3488533020D+03 Coefficients=  3.2690000000D-02
     Exponent=  4.9049210981D+02 Coefficients=  9.9520000000D-02
     Exponent=  1.7836076720D+02 Coefficients=  2.6555000000D-01
 S 1 1.00
     Exponent=  6.4858460801D+01 Coefficients=  1.0000000000D+00
 S 1 1.00
     Exponent=  2.3584894837D+01 Coefficients=  1.0000000000D+00
 S 1 1.00
     Exponent=  8.5763253951D+00 Coefficients=  1.0000000000D+00
 S 1 1.00
     Exponent=  3.1186637801D+00 Coefficients=  1.0000000000D+00
 S 1 1.00
     Exponent=  1.1340595564D+00 Coefficients=  1.0000000000D+00
 S 1 1.00
     Exponent=  4.1238529323D-01 Coefficients=  1.0000000000D+00
 S 1 1.00
     Exponent=  1.4995828845D-01 Coefficients=  1.0000000000D+00
 S 1 1.00
     Exponent=  5.4530286708D-02 Coefficients=  1.0000000000D+00
 P 5 1.00
     Exponent=  6.9498536057D+02 Coefficients=  2.0000000000D-03
     Exponent=  2.3166178686D+02 Coefficients=  8.9500000000D-03
     Exponent=  7.7220595619D+01 Coefficients=  5.1130000000D-02
     Exponent=  2.5740198540D+01 Coefficients=  2.1011000000D-01
     Exponent=  8.5800661799D+00 Coefficients=  4.9738000000D-01
 P 1 1.00
     Exponent=  2.8600220600D+00 Coefficients=  1.0000000000D+00
 P 1 1.00
     Exponent=  9.5334068665D-01 Coefficients=  1.0000000000D+00
 P 1 1.00
     Exponent=  3.1778022888D-01 Coefficients=  1.0000000000D+00
 P 1 1.00
     Exponent=  1.0592674296D-01 Coefficients=  1.0000000000D+00
 P 1 1.00
     Exponent=  3.5308914320D-02 Coefficients=  1.0000000000D+00
 D 1 1.00
     Exponent=  5.5696000000D-01 Coefficients=  1.0000000000D+00
 D 1 1.00
     Exponent=  1.5619100000D-01 Coefficients=  1.0000000000D+00
 ****
 Centers:      41
 S 8 1.00
     Exponent=  7.5448214551D+05 Coefficients=  4.4300000000D-03
     Exponent=  3.3532539800D+05 Coefficients=  1.9800000000D-03
     Exponent=  1.4903351022D+05 Coefficients=  9.0500000000D-03
     Exponent=  6.6237115655D+04 Coefficients=  4.8700000000D-03
     Exponent=  2.9438718069D+04 Coefficients=  2.0770000000D-02
     Exponent=  1.3083874697D+04 Coefficients=  3.2900000000D-02
     Exponent=  5.8150554210D+03 Coefficients=  7.7010000000D-02
     Exponent=  2.5844690760D+03 Coefficients=  1.5160000000D-01
 S 1 1.00
     Exponent=  1.1486529227D+03 Coefficients=  1.0000000000D+00
 S 1 1.00
     Exponent=  5.1051241008D+02 Coefficients=  1.0000000000D+00
 S 1 1.00
     Exponent=  2.2689440448D+02 Coefficients=  1.0000000000D+00
 S 1 1.00
     Exponent=  1.0084195755D+02 Coefficients=  1.0000000000D+00
 S 1 1.00
     Exponent=  4.4818647798D+01 Coefficients=  1.0000000000D+00
 S 1 1.00
     Exponent=  1.9919399021D+01 Coefficients=  1.0000000000D+00
 S 1 1.00
     Exponent=  8.8530662317D+00 Coefficients=  1.0000000000D+00
 S 1 1.00
     Exponent=  3.9346961030D+00 Coefficients=  1.0000000000D+00
 S 1 1.00
     Exponent=  1.7487538235D+00 Coefficients=  1.0000000000D+00
 S 1 1.00
     Exponent=  7.7722392158D-01 Coefficients=  1.0000000000D+00
 S 1 1.00
     Exponent=  3.4543285403D-01 Coefficients=  1.0000000000D+00
 S 1 1.00
     Exponent=  1.5352571290D-01 Coefficients=  1.0000000000D+00
 S 1 1.00
     Exponent=  6.8233650180D-02 Coefficients=  1.0000000000D+00
 S 1 1.00
     Exponent=  1.3478251887D-02 Coefficients=  1.0000000000D+00
 P 5 1.00
     Exponent=  1.0090658304D+04 Coefficients=  2.7500000000D-03
     Exponent=  4.0362633217D+03 Coefficients=  4.1800000000D-03
     Exponent=  1.6145053287D+03 Coefficients=  2.0890000000D-02
     Exponent=  6.4580213147D+02 Coefficients=  7.1370000000D-02
     Exponent=  2.5832085259D+02 Coefficients=  2.2613000000D-01
 P 1 1.00
     Exponent=  1.0332834104D+02 Coefficients=  1.0000000000D+00
 P 1 1.00
     Exponent=  4.1331336414D+01 Coefficients=  1.0000000000D+00
 P 1 1.00
     Exponent=  1.6532534566D+01 Coefficients=  1.0000000000D+00
 P 1 1.00
     Exponent=  6.6130138263D+00 Coefficients=  1.0000000000D+00
 P 1 1.00
     Exponent=  2.6452055305D+00 Coefficients=  1.0000000000D+00
 P 1 1.00
     Exponent=  1.0580822122D+00 Coefficients=  1.0000000000D+00
 P 1 1.00
     Exponent=  4.2323288488D-01 Coefficients=  1.0000000000D+00
 P 1 1.00
     Exponent=  1.6929315395D-01 Coefficients=  1.0000000000D+00
 P 1 1.00
     Exponent=  6.7717261581D-02 Coefficients=  1.0000000000D+00
 P 1 1.00
     Exponent=  2.7086904632D-02 Coefficients=  1.0000000000D+00
 P 1 1.00
     Exponent=  1.0834761853D-02 Coefficients=  1.0000000000D+00
 D 4 1.00
     Exponent=  5.5430250651D+02 Coefficients=  4.3700000000D-03
     Exponent=  2.0156454782D+02 Coefficients=  2.5110000000D-02
     Exponent=  7.3296199207D+01 Coefficients=  1.3316000000D-01
     Exponent=  2.6653163348D+01 Coefficients=  3.8900000000D-01
 D 1 1.00
     Exponent=  9.6920593993D+00 Coefficients=  1.0000000000D+00
 D 1 1.00
     Exponent=  3.5243852361D+00 Coefficients=  1.0000000000D+00
 D 1 1.00
     Exponent=  1.2815946313D+00 Coefficients=  1.0000000000D+00
 D 1 1.00
     Exponent=  4.6603441139D-01 Coefficients=  1.0000000000D+00
 D 1 1.00
     Exponent=  1.6946705869D-01 Coefficients=  1.0000000000D+00
 F 1 1.00
     Exponent=  1.3140000000D+00 Coefficients=  1.0000000000D+00
 F 1 1.00
     Exponent=  1.9993000000D-01 Coefficients=  1.0000000000D+00
 ****
 Centers:       1
 S 9 1.00
     Exponent=  2.1644816090D+06 Coefficients=  1.2320000000D-02
     Exponent=  1.0822408045D+06 Coefficients=  1.2970000000D-02
     Exponent=  5.4112040224D+05 Coefficients=  2.6370000000D-02
     Exponent=  2.7056020112D+05 Coefficients=  9.0400000000D-03
     Exponent=  1.3528010056D+05 Coefficients=  3.4980000000D-02
     Exponent=  6.7640050280D+04 Coefficients=  1.2220000000D-02
     Exponent=  3.3820025140D+04 Coefficients=  6.0520000000D-02
     Exponent=  1.6910012570D+04 Coefficients=  6.4930000000D-02
     Exponent=  8.4550062850D+03 Coefficients=  1.3819000000D-01
 S 1 1.00
     Exponent=  4.2275031425D+03 Coefficients=  1.0000000000D+00
 S 1 1.00
     Exponent=  2.1137515713D+03 Coefficients=  1.0000000000D+00
 S 1 1.00
     Exponent=  1.0568757856D+03 Coefficients=  1.0000000000D+00
 S 1 1.00
     Exponent=  5.2843789281D+02 Coefficients=  1.0000000000D+00
 S 1 1.00
     Exponent=  2.6421894641D+02 Coefficients=  1.0000000000D+00
 S 1 1.00
     Exponent=  1.3210947320D+02 Coefficients=  1.0000000000D+00
 S 1 1.00
     Exponent=  6.6054736602D+01 Coefficients=  1.0000000000D+00
 S 1 1.00
     Exponent=  3.3027368301D+01 Coefficients=  1.0000000000D+00
 S 1 1.00
     Exponent=  1.6513684150D+01 Coefficients=  1.0000000000D+00
 S 1 1.00
     Exponent=  8.2568420752D+00 Coefficients=  1.0000000000D+00
 S 1 1.00
     Exponent=  4.1284210376D+00 Coefficients=  1.0000000000D+00
 S 1 1.00
     Exponent=  2.0642105188D+00 Coefficients=  1.0000000000D+00
 S 1 1.00
     Exponent=  1.0321052594D+00 Coefficients=  1.0000000000D+00
 S 1 1.00
     Exponent=  5.1605262970D-01 Coefficients=  1.0000000000D+00
 S 1 1.00
     Exponent=  2.5802631485D-01 Coefficients=  1.0000000000D+00
 S 1 1.00
     Exponent=  1.2901315743D-01 Coefficients=  1.0000000000D+00
 S 1 1.00
     Exponent=  6.4506578713D-02 Coefficients=  1.0000000000D+00
 P 7 1.00
     Exponent=  3.2357915258D+04 Coefficients=  5.0200000000D-03
     Exponent=  1.4381295670D+04 Coefficients=  2.0200000000D-03
     Exponent=  6.3916869645D+03 Coefficients=  1.8070000000D-02
     Exponent=  2.8407497620D+03 Coefficients=  3.6620000000D-02
     Exponent=  1.2625554498D+03 Coefficients=  1.1172000000D-01
     Exponent=  5.6113575545D+02 Coefficients=  2.5586000000D-01
     Exponent=  2.4939366909D+02 Coefficients=  4.2608000000D-01
 P 1 1.00
     Exponent=  1.1084163071D+02 Coefficients=  1.0000000000D+00
 P 1 1.00
     Exponent=  4.9262946981D+01 Coefficients=  1.0000000000D+00
 P 1 1.00
     Exponent=  2.1894643103D+01 Coefficients=  1.0000000000D+00
 P 1 1.00
     Exponent=  9.7309524900D+00 Coefficients=  1.0000000000D+00
 P 1 1.00
     Exponent=  4.3248677733D+00 Coefficients=  1.0000000000D+00
 P 1 1.00
     Exponent=  1.9221634548D+00 Coefficients=  1.0000000000D+00
 P 1 1.00
     Exponent=  8.5429486881D-01 Coefficients=  1.0000000000D+00
 P 1 1.00
     Exponent=  3.7968660836D-01 Coefficients=  1.0000000000D+00
 P 1 1.00
     Exponent=  1.6874960372D-01 Coefficients=  1.0000000000D+00
 P 1 1.00
     Exponent=  7.4999823874D-02 Coefficients=  1.0000000000D+00
 P 1 1.00
     Exponent=  3.3333255055D-02 Coefficients=  1.0000000000D+00
 D 5 1.00
     Exponent=  1.9119003508D+03 Coefficients=  4.3300000000D-03
     Exponent=  7.6476014031D+02 Coefficients=  1.7780000000D-02
     Exponent=  3.0590405613D+02 Coefficients=  8.9710000000D-02
     Exponent=  1.2236162245D+02 Coefficients=  3.1123000000D-01
     Exponent=  4.8944648980D+01 Coefficients=  5.3206000000D-01
 D 1 1.00
     Exponent=  1.9577859592D+01 Coefficients=  1.0000000000D+00
 D 1 1.00
     Exponent=  7.8311438368D+00 Coefficients=  1.0000000000D+00
 D 1 1.00
     Exponent=  3.1324575347D+00 Coefficients=  1.0000000000D+00
 D 1 1.00
     Exponent=  1.2529830139D+00 Coefficients=  1.0000000000D+00
 D 1 1.00
     Exponent=  5.0119320556D-01 Coefficients=  1.0000000000D+00
 D 1 1.00
     Exponent=  2.0047728222D-01 Coefficients=  1.0000000000D+00
 D 1 1.00
     Exponent=  8.0190912889D-02 Coefficients=  1.0000000000D+00
 D 1 1.00
     Exponent=  3.2076365156D-02 Coefficients=  1.0000000000D+00
 F 4 1.00
     Exponent=  8.2289680979D+01 Coefficients=  6.1870000000D-02
     Exponent=  2.9923520356D+01 Coefficients=  2.4823000000D-01
     Exponent=  1.0881280130D+01 Coefficients=  4.9956000000D-01
     Exponent=  3.9568291380D+00 Coefficients=  4.0380000000D-01
 F 1 1.00
     Exponent=  1.4388469593D+00 Coefficients=  1.0000000000D+00
 F 1 1.00
     Exponent=  5.2321707610D-01 Coefficients=  1.0000000000D+00
 G 1 1.00
     Exponent=  2.6700000000D+00 Coefficients=  1.0000000000D+00
 G 1 1.00
     Exponent=  9.0960000000D-01 Coefficients=  1.0000000000D+00
 ****
 Ernie: Thresh=  0.10000D-02 Tol=  0.10000D-05 Strict=F.
 There are  1316 symmetry adapted cartesian basis functions of A   symmetry.
 There are  1226 symmetry adapted basis functions of A   symmetry.
  1226 basis functions,  1937 primitive gaussians,  1316 cartesian basis functions
   180 alpha electrons      180 beta electrons
       nuclear repulsion energy      7849.5504692626 Hartrees.
 IExCor= 1009 DFT=T Ex=PBE Corr=PBE ExCW=0 ScaHFX=  0.000000
 ScaDFX=  1.000000  1.000000  1.000000  1.000000 ScalE2=  1.000000  1.000000
 IRadAn=      0 IRanWt=     -1 IRanGd=            0 ICorTp=0 IEmpDi=  4
 NAtoms=   63 NActive=   63 NUniq=   63 SFac= 1.00D+00 NAtFMM=   60 NAOKFM=T Big=T
 Integral buffers will be    131072 words long.
 Raffenetti 2 integral format.
 Two-electron integral symmetry is turned on.
 ------------------------------------------------------------------------------
 Polarizable Continuum Model (PCM)
 =================================
 Model                : PCM (using non-symmetric T matrix).
 Atomic radii         : UFF (Universal Force Field).
 Polarization charges : Total charges.
 Charge compensation  : None.
 Solution method      : On-the-fly selection.
 Cavity type          : Scaled VdW (van der Waals Surface) (Alpha=1.100).
 Cavity algorithm     : GePol (No added spheres)
                        Default sphere list used, NSphG=   63.
                        Lebedev-Laikov grids with approx.  5.0 points / Ang**2.
                        Smoothing algorithm: Karplus/York (Gamma=1.0000).
                        Polarization charges: spherical gaussians, with
                                              point-specific exponents (IZeta= 3).
                        Self-potential: point-specific (ISelfS= 7).
                        Self-field    : sphere-specific E.n sum rule (ISelfD= 2).
 Solvent              : Dichloromethane, Eps=   8.930000 Eps(inf)=   2.028346
 ------------------------------------------------------------------------------
 GePol: Number of generator spheres                  =      63
 GePol: Total number of spheres                      =      63
 GePol: Number of exposed spheres                    =      63 (100.00%)
 GePol: Number of points                             =    4400
 GePol: Average weight of points                     =       0.13
 GePol: Minimum weight of points                     =   0.30D-11
 GePol: Maximum weight of points                     =    0.21838
 GePol: Number of points with low weight             =     302
 GePol: Fraction of low-weight points (<1% of avg)   =       6.86%
 GePol: Cavity surface area                          =    581.550 Ang**2
 GePol: Cavity volume                                =    692.899 Ang**3
 Leave Link  301 at Mon Aug 26 04:51:05 2019, MaxMem=   939524096 cpu:         0.9
 (Enter /scr/programas/g09/l302.exe)
 NPDir=0 NMtPBC=     1 NCelOv=     1 NCel=       1 NClECP=     1 NCelD=      1
         NCelK=      1 NCelE2=     1 NClLst=     1 CellRange=     0.0.
 One-electron integrals computed using PRISM.
 NBasis=  1226 RedAO= T EigKep=  1.66D-06  NBF=  1226
 NBsUse=  1226 1.00D-06 EigRej= -1.00D+00 NBFU=  1226
 Precomputing XC quadrature grid using
 IXCGrd= 4 IRadAn=           0 IRanWt=          -1 IRanGd=           0 AccXCQ= 0.00D+00.
 Defaulting to unpruned grid for atomic number  78.
 Defaulting to unpruned grid for atomic number  50.
 Generated NRdTot=       0 NPtTot=           0 NUsed=           0 NTot=          32
 NSgBfM=  1156  1156  1156  1157  1157 MxSgAt=    63 MxSgA2=    63.
 Leave Link  302 at Mon Aug 26 04:51:13 2019, MaxMem=   939524096 cpu:        33.4
 (Enter /scr/programas/g09/l308.exe)
 Leave Link  308 at Mon Aug 26 04:51:14 2019, MaxMem=   939524096 cpu:         2.9
 (Enter /scr/programas/g09/l303.exe)
 DipDrv:  MaxL=1.
 Leave Link  303 at Mon Aug 26 04:51:14 2019, MaxMem=   939524096 cpu:         1.8
 (Enter /scr/programas/g09/l401.exe)
 ExpMin= 1.08D-02 ExpMax= 2.16D+06 ExpMxC= 2.16D+06 IAcc=4 IRadAn=    199590 AccDes= 0.00D+00
 Harris functional with IExCor= 1009 and IRadAn=  199590 diagonalized for initial guess.
 HarFok:  IExCor= 1009 AccDes= 0.00D+00 IRadAn=    199590 IDoV= 1 UseB2=F ITyADJ=14
 ICtDFT=  3500011 ScaDFX=  1.000000  1.000000  1.000000  1.000000
 FoFCou: FMM=F IPFlag=           0 FMFlag=      100000 FMFlg1=        2001
         NFxFlg=           0 DoJE=T BraDBF=F KetDBF=T FulRan=T
         wScrn=  0.000000 ICntrl=     500 IOpCl=  0 I1Cent=   200000004 NGrid=           0
         NMat0=    1 NMatS0=      1 NMatT0=    0 NMatD0=    1 NMtDS0=    0 NMtDT0=    0
 Petite list used in FoFCou.
 Harris En= -25913.6078863497    
 JPrj=0 DoOrth=F DoCkMO=F.
 Leave Link  401 at Mon Aug 26 04:57:13 2019, MaxMem=   939524096 cpu:      1426.1
 (Enter /scr/programas/g09/l502.exe)
 Closed shell SCF:
 Using DIIS extrapolation, IDIIS=  1040.
 Integral symmetry usage will be decided dynamically.
 IVT=     5467296 IEndB=     5467296 NGot=   939524096 MDV=   936040973
 LenX=   936040973 LenY=   934307801
 Requested convergence on RMS density matrix=1.00D-04 within 500 cycles.
 Requested convergence on MAX density matrix=1.00D-02.
 Requested convergence on             energy=1.00D-02.
 No special actions if energy rises.
 Fock matrices will be formed incrementally for  20 cycles.

 Cycle   1  Pass 1  IDiag  1:
 FoFJK:  IHMeth= 1 ICntrl=     500 DoSepK=F KAlg= 0 I1Cent=   0 FoldK=F
 IRaf= 730000000 NMat=   1 IRICut=       1 DoRegI=T DoRafI=F ISym2E= 0.
 FoFCou: FMM=T IPFlag=           0 FMFlag=      100000 FMFlg1=        2001
         NFxFlg=           0 DoJE=T BraDBF=F KetDBF=F FulRan=T
         wScrn=  0.000000 ICntrl=     500 IOpCl=  0 I1Cent=           0 NGrid=           0
         NMat0=    1 NMatS0=      1 NMatT0=    0 NMatD0=    1 NMtDS0=    0 NMtDT0=    0
 Symmetry not used in FoFCou.
 FMM levels:  10  Number of levels for PrismC:   9
 Defaulting to unpruned grid for atomic number  78.
 Defaulting to unpruned grid for atomic number  78.
 Defaulting to unpruned grid for atomic number  78.
 Defaulting to unpruned grid for atomic number  78.
 Inv3:  Mode=1 IEnd=    58080000.
 Iteration    1 A*A^-1 deviation from unit magnitude is 8.44D-15 for   3619.
 Iteration    1 A*A^-1 deviation from orthogonality  is 9.55D-15 for   4014   1776.
 Iteration    1 A^-1*A deviation from unit magnitude is 9.77D-15 for   4014.
 Iteration    1 A^-1*A deviation from orthogonality  is 1.76D-09 for   3070   3060.
 Iteration    2 A*A^-1 deviation from unit magnitude is 1.07D-14 for    318.
 Iteration    2 A*A^-1 deviation from orthogonality  is 1.47D-14 for   2417    250.
 Iteration    2 A^-1*A deviation from unit magnitude is 1.89D-15 for    337.
 Iteration    2 A^-1*A deviation from orthogonality  is 9.22D-16 for   2730    358.
 E= -25894.0626778226    
 DIIS: error= 3.16D-01 at cycle   1 NSaved=   1.
 NSaved= 1 IEnMin= 1 EnMin= -25894.0626778226     IErMin= 1 ErrMin= 3.16D-01
 ErrMax= 3.16D-01  0.00D+00 EMaxC= 1.00D-01 BMatC= 3.34D+02 BMatP= 3.34D+02
 IDIUse=3 WtCom= 0.00D+00 WtEn= 1.00D+00
 Coeff-Com:  0.100D+01
 Coeff-En:   0.100D+01
 Coeff:      0.100D+01
 Gap=     0.832 Goal=   None    Shift=    0.000
 GapD=    0.832 DampG=2.000 DampE=0.125 DampFc=0.2500 IDamp=-1.
 Damping current iteration by 2.50D-01
 RMSDP=1.22D-02 MaxDP=1.52D+00              OVMax= 8.09D-01

 Cycle   2  Pass 1  IDiag  1:
 RMSU=  3.00D-03    CP:  1.05D+00
 E= -25895.6333434627     Delta-E=       -1.570665640131 Rises=F Damp=T
 DIIS: error= 2.25D-01 at cycle   2 NSaved=   2.
 NSaved= 2 IEnMin= 2 EnMin= -25895.6333434627     IErMin= 2 ErrMin= 2.25D-01
 ErrMax= 2.25D-01  0.00D+00 EMaxC= 1.00D-01 BMatC= 1.61D+02 BMatP= 3.34D+02
 IDIUse=3 WtCom= 0.00D+00 WtEn= 1.00D+00
 Coeff-Com: -0.200D+01 0.300D+01
 Coeff-En:   0.627D-01 0.937D+00
 Coeff:      0.627D-01 0.937D+00
 Gap=    -0.174 Goal=   None    Shift=    0.000
 RMSDP=3.10D-03 MaxDP=2.56D-01 DE=-1.57D+00 OVMax= 6.10D-01

 Cycle   3  Pass 1  IDiag  1:
 RMSU=  2.76D-03    CP:  1.00D+00  5.74D-01
 E= -25897.2901667108     Delta-E=       -1.656823248137 Rises=F Damp=F
 DIIS: error= 4.56D-02 at cycle   3 NSaved=   3.
 NSaved= 3 IEnMin= 3 EnMin= -25897.2901667108     IErMin= 3 ErrMin= 4.56D-02
 ErrMax= 4.56D-02  0.00D+00 EMaxC= 1.00D-01 BMatC= 1.15D+01 BMatP= 1.61D+02
 IDIUse=3 WtCom= 5.44D-01 WtEn= 4.56D-01
 EnCoef did   100 forward-backward iterations
 Coeff-Com:  0.912D+00-0.110D+01 0.118D+01
 Coeff-En:   0.267D+00 0.677D-02 0.726D+00
 Coeff:      0.618D+00-0.593D+00 0.975D+00
 Gap=     0.583 Goal=   None    Shift=    0.000
 RMSDP=1.71D-02 MaxDP=1.85D+00 DE=-1.66D+00 OVMax= 9.56D-01

 Cycle   4  Pass 1  IDiag  1:
 RMSU=  1.40D-02    CP:  1.29D+00  3.00D+00 -9.38D-01
 E= -25866.4005267069     Delta-E=       30.889640003894 Rises=F Damp=F
 DIIS: error= 8.03D-02 at cycle   4 NSaved=   4.
 NSaved= 4 IEnMin= 3 EnMin= -25897.2901667108     IErMin= 3 ErrMin= 4.56D-02
 ErrMax= 8.03D-02  0.00D+00 EMaxC= 1.00D-01 BMatC= 2.01D+01 BMatP= 1.15D+01
 IDIUse=2 WtCom= 0.00D+00 WtEn= 1.00D+00
 EnCoef did   100 forward-backward iterations
 Coeff-En:   0.247D+00 0.272D-02 0.722D+00 0.284D-01
 Coeff:      0.247D+00 0.272D-02 0.722D+00 0.284D-01
 Gap=    -0.010 Goal=   None    Shift=    0.000
 RMSDP=1.49D-02 MaxDP=1.96D+00 DE= 3.09D+01 OVMax= 9.29D-01

 Cycle   5  Pass 1  IDiag  1:
 RMSU=  4.17D-03    CP:  1.05D+00  1.15D+00 -1.01D-02  1.09D-01
 E= -25891.5718124741     Delta-E=      -25.171285767181 Rises=F Damp=F
 DIIS: error= 4.37D-02 at cycle   5 NSaved=   5.
 NSaved= 5 IEnMin= 3 EnMin= -25897.2901667108     IErMin= 5 ErrMin= 4.37D-02
 ErrMax= 4.37D-02  0.00D+00 EMaxC= 1.00D-01 BMatC= 8.90D+00 BMatP= 1.15D+01
 IDIUse=3 WtCom= 5.63D-01 WtEn= 4.37D-01
 Coeff-Com:  0.375D+00-0.434D+00 0.673D+00 0.111D+00 0.275D+00
 Coeff-En:   0.000D+00 0.000D+00 0.721D+00 0.000D+00 0.279D+00
 Coeff:      0.211D+00-0.244D+00 0.694D+00 0.627D-01 0.277D+00
 Gap=    -0.148 Goal=   None    Shift=    0.000
 RMSDP=4.99D-03 MaxDP=7.77D-01 DE=-2.52D+01 OVMax= 7.61D-01

 Cycle   6  Pass 1  IDiag  1:
 RMSU=  1.80D-03    CP:  1.02D+00  7.22D-01  5.12D-01  1.71D-03  5.45D-02
 E= -25898.2842137820     Delta-E=       -6.712401307901 Rises=F Damp=F
 DIIS: error= 1.20D-02 at cycle   6 NSaved=   6.
 NSaved= 6 IEnMin= 6 EnMin= -25898.2842137820     IErMin= 6 ErrMin= 1.20D-02
 ErrMax= 1.20D-02  0.00D+00 EMaxC= 1.00D-01 BMatC= 1.23D+00 BMatP= 8.90D+00
 IDIUse=3 WtCom= 8.80D-01 WtEn= 1.20D-01
 EnCoef did     8 forward-backward iterations
 Coeff-Com:  0.110D+00-0.129D+00 0.275D+00 0.523D-01 0.174D+00 0.517D+00
 Coeff-En:   0.000D+00 0.000D+00 0.149D+00 0.000D+00 0.198D+00 0.653D+00
 Coeff:      0.971D-01-0.113D+00 0.260D+00 0.460D-01 0.177D+00 0.533D+00
 Gap=     0.201 Goal=   None    Shift=    0.000
 RMSDP=2.62D-03 MaxDP=3.14D-01 DE=-6.71D+00 OVMax= 4.11D-01

 Cycle   7  Pass 1  IDiag  1:
 RMSU=  1.20D-03    CP:  9.93D-01  3.86D-01  5.65D-01  1.51D-02  9.93D-02
                    CP: -1.48D-01
 E= -25898.8529758453     Delta-E=       -0.568762063289 Rises=F Damp=F
 DIIS: error= 1.02D-02 at cycle   7 NSaved=   7.
 NSaved= 7 IEnMin= 7 EnMin= -25898.8529758453     IErMin= 7 ErrMin= 1.02D-02
 ErrMax= 1.02D-02  0.00D+00 EMaxC= 1.00D-01 BMatC= 4.71D-01 BMatP= 1.23D+00
 IDIUse=3 WtCom= 8.98D-01 WtEn= 1.02D-01
 Coeff-Com: -0.579D-01 0.801D-01 0.408D-01 0.116D-01 0.733D-01 0.353D+00
 Coeff-Com:  0.499D+00
 Coeff-En:   0.000D+00 0.000D+00 0.000D+00 0.000D+00 0.000D+00 0.351D+00
 Coeff-En:   0.649D+00
 Coeff:     -0.520D-01 0.719D-01 0.366D-01 0.104D-01 0.658D-01 0.352D+00
 Coeff:      0.515D+00
 Gap=     0.145 Goal=   None    Shift=    0.000
 RMSDP=2.12D-03 MaxDP=2.69D-01 DE=-5.69D-01 OVMax= 3.65D-01

 Cycle   8  Pass 1  IDiag  1:
 RMSU=  1.13D-03    CP:  1.02D+00  6.08D-01  4.71D-01  3.07D-02  2.54D-01
                    CP:  4.16D-01  1.31D-01
 E= -25899.1001146742     Delta-E=       -0.247138828883 Rises=F Damp=F
 DIIS: error= 8.75D-03 at cycle   8 NSaved=   8.
 NSaved= 8 IEnMin= 8 EnMin= -25899.1001146742     IErMin= 8 ErrMin= 8.75D-03
 ErrMax= 8.75D-03  0.00D+00 EMaxC= 1.00D-01 BMatC= 2.88D-01 BMatP= 4.71D-01
 IDIUse=3 WtCom= 9.12D-01 WtEn= 8.75D-02
 EnCoef did     4 forward-backward iterations
 Coeff-Com: -0.987D-01 0.132D+00-0.278D-01 0.379D-02 0.768D-02 0.161D+00
 Coeff-Com:  0.412D+00 0.410D+00
 Coeff-En:   0.000D+00 0.000D+00 0.000D+00 0.000D+00 0.000D+00 0.196D-01
 Coeff-En:   0.374D+00 0.607D+00
 Coeff:     -0.901D-01 0.121D+00-0.254D-01 0.346D-02 0.700D-02 0.148D+00
 Coeff:      0.409D+00 0.427D+00
 Gap=     0.128 Goal=   None    Shift=    0.000
 RMSDP=1.12D-03 MaxDP=1.36D-01 DE=-2.47D-01 OVMax= 1.69D-01

 Cycle   9  Pass 1  IDiag  1:
 RMSU=  3.70D-04    CP:  1.00D+00  5.12D-01  5.07D-01  2.52D-02  1.90D-01
                    CP:  2.33D-01  6.32D-01  4.26D-01
 E= -25899.3583536489     Delta-E=       -0.258238974675 Rises=F Damp=F
 DIIS: error= 1.60D-03 at cycle   9 NSaved=   9.
 NSaved= 9 IEnMin= 9 EnMin= -25899.3583536489     IErMin= 9 ErrMin= 1.60D-03
 ErrMax= 1.60D-03  0.00D+00 EMaxC= 1.00D-01 BMatC= 1.50D-02 BMatP= 2.88D-01
 IDIUse=3 WtCom= 9.84D-01 WtEn= 1.60D-02
 Coeff-Com: -0.344D-01 0.458D-01-0.188D-01 0.365D-03 0.263D-02 0.248D-01
 Coeff-Com:  0.121D+00 0.216D+00 0.643D+00
 Coeff-En:   0.000D+00 0.000D+00 0.000D+00 0.000D+00 0.000D+00 0.000D+00
 Coeff-En:   0.000D+00 0.216D-01 0.978D+00
 Coeff:     -0.339D-01 0.450D-01-0.185D-01 0.359D-03 0.259D-02 0.244D-01
 Coeff:      0.119D+00 0.212D+00 0.649D+00
 Gap=     0.120 Goal=   None    Shift=    0.000
 RMSDP=2.54D-04 MaxDP=3.20D-02 DE=-2.58D-01 OVMax= 3.28D-02

 Cycle  10  Pass 1  IDiag  1:
 RMSU=  1.49D-04    CP:  1.01D+00  5.47D-01  5.17D-01  2.52D-02  1.98D-01
                    CP:  2.68D-01  5.70D-01  5.20D-01  7.86D-01
 E= -25899.3652509881     Delta-E=       -0.006897339212 Rises=F Damp=F
 DIIS: error= 9.08D-04 at cycle  10 NSaved=  10.
 NSaved=10 IEnMin=10 EnMin= -25899.3652509881     IErMin=10 ErrMin= 9.08D-04
 ErrMax= 9.08D-04  0.00D+00 EMaxC= 1.00D-01 BMatC= 3.90D-03 BMatP= 1.50D-02
 IDIUse=3 WtCom= 9.91D-01 WtEn= 9.08D-03
 Coeff-Com: -0.520D-02 0.658D-02-0.876D-02 0.661D-03 0.329D-02-0.154D-01
 Coeff-Com:  0.127D-01 0.677D-01 0.398D+00 0.540D+00
 Coeff-En:   0.000D+00 0.000D+00 0.000D+00 0.000D+00 0.000D+00 0.000D+00
 Coeff-En:   0.000D+00 0.000D+00 0.241D+00 0.759D+00
 Coeff:     -0.516D-02 0.653D-02-0.868D-02 0.655D-03 0.326D-02-0.152D-01
 Coeff:      0.126D-01 0.671D-01 0.397D+00 0.542D+00
 Gap=     0.119 Goal=   None    Shift=    0.000
 RMSDP=1.00D-04 MaxDP=1.94D-02 DE=-6.90D-03 OVMax= 1.45D-02

 Cycle  11  Pass 1  IDiag  1:
 RMSU=  4.66D-05    CP:  1.01D+00  5.39D-01  5.05D-01  2.66D-02  2.06D-01
                    CP:  2.63D-01  5.94D-01  5.08D-01  8.64D-01  6.61D-01
 E= -25899.3689173232     Delta-E=       -0.003666335149 Rises=F Damp=F
 DIIS: error= 2.01D-04 at cycle  11 NSaved=  11.
 NSaved=11 IEnMin=11 EnMin= -25899.3689173232     IErMin=11 ErrMin= 2.01D-04
 ErrMax= 2.01D-04  0.00D+00 EMaxC= 1.00D-01 BMatC= 3.49D-04 BMatP= 3.90D-03
 IDIUse=3 WtCom= 9.98D-01 WtEn= 2.01D-03
 Coeff-Com: -0.835D-03 0.924D-03-0.423D-02 0.243D-03 0.195D-02-0.118D-01
 Coeff-Com:  0.492D-02 0.262D-01 0.139D+00 0.221D+00 0.622D+00
 Coeff-En:   0.000D+00 0.000D+00 0.000D+00 0.000D+00 0.000D+00 0.000D+00
 Coeff-En:   0.000D+00 0.000D+00 0.000D+00 0.000D+00 0.100D+01
 Coeff:     -0.833D-03 0.922D-03-0.422D-02 0.243D-03 0.195D-02-0.117D-01
 Coeff:      0.491D-02 0.261D-01 0.139D+00 0.221D+00 0.623D+00
 Gap=     0.118 Goal=   None    Shift=    0.000
 RMSDP=3.10D-05 MaxDP=4.94D-03 DE=-3.67D-03 OVMax= 4.30D-03

 Error on total polarization charges =  0.02408
 SCF Done:  E(RPBE-PBE) =  -25899.3689173     A.U. after   11 cycles
            NFock= 11  Conv=0.31D-04     -V/T= 2.0158
 KE= 2.549608477971D+04 PE=-7.698349727097D+04 EE= 1.773849310467D+04
 Leave Link  502 at Mon Aug 26 06:30:48 2019, MaxMem=   939524096 cpu:     22339.3
 (Enter /scr/programas/g09/l801.exe)
 Range of M.O.s used for correlation:     1  1226
 NBasis=  1226 NAE=   180 NBE=   180 NFC=     0 NFV=     0
 NROrb=   1226 NOA=   180 NOB=   180 NVA=  1046 NVB=  1046

 **** Warning!!: The largest alpha MO coefficient is  0.73367181D+02

 Leave Link  801 at Mon Aug 26 06:30:49 2019, MaxMem=   939524096 cpu:         0.2
 (Enter /scr/programas/g09/l1002.exe)
 Minotr:  Closed shell wavefunction.
 NEqPCM:  Using equilibrium solvation (IEInf=0, Eps=   8.9300, EpsInf=   2.0283)
          Direct CPHF calculation.
          Differentiating once with respect to magnetic field using GIAOs.
          Electric field/nuclear overlap derivatives assumed to be zero.
          Requested convergence is 1.0D-08 RMS, and 1.0D-07 maximum.
          Secondary convergence is 1.0D-12 RMS, and 1.0D-12 maximum.
          NewPWx=T KeepS1=F KeepF1=F KeepIn=T MapXYZ=F SortEE=F KeepMc=T.
          MDV=     939522362 using IRadAn=       2.
 Defaulting to unpruned grid for atomic number  78.
 Defaulting to unpruned grid for atomic number  50.
 Generate precomputed XC quadrature information.
          Solving linear equations simultaneously, MaxMat=      72.
 FoFJK:  IHMeth= 1 ICntrl=    6127 DoSepK=F KAlg= 0 I1Cent=   0 FoldK=F
 IRaf=         1 NMat=   1 IRICut=       1 DoRegI=T DoRafI=F ISym2E= 0.
 Defaulting to unpruned grid for atomic number  78.
 Defaulting to unpruned grid for atomic number  78.
 Defaulting to unpruned grid for atomic number  78.
 Defaulting to unpruned grid for atomic number  78.
          There are     3 degrees of freedom in the 1st order CPHF.  IDoFFX=0 NUNeed=     3.
      3 vectors produced by pass  0 Test12= 6.28D-12 3.33D-08 XBig12= 2.89D+02 3.33D+00.
 AX will form     3 AO Fock derivatives at one time.
 InvSVY:  IOpt=1 It=  1 EMax= 0.00D+00
 Solved reduced A of dimension     3 with     3 vectors.
 Calculating GIAO nuclear magnetic shielding tensors.
 SCF GIAO Magnetic shielding tensor (ppm):
      1  Pt   Isotropic =  3002.3091   Anisotropy =  1152.7211
   XX=  3763.9494   YX=    29.9691   ZX=    63.9454
   XY=    25.7086   YY=  3512.1680   ZY=  -113.1741
   XZ=   135.0021   YZ=  -109.1540   ZZ=  1730.8100
   Eigenvalues:  1718.9100  3517.2275  3770.7899
      2  P    Isotropic =   292.8669   Anisotropy =    31.0737
   XX=   299.3488   YX=    -8.4505   ZX=     7.7677
   XY=     9.4172   YY=   301.6651   ZY=    16.9440
   XZ=    16.7347   YZ=    17.0321   ZZ=   277.5870
   Eigenvalues:   265.3769   299.6412   313.5827
      3  P    Isotropic =   275.6521   Anisotropy =    52.0008
   XX=   243.0194   YX=     9.0311   ZX=   -17.8346
   XY=   -11.5666   YY=   310.0187   ZY=    -7.1013
   XZ=    -6.1983   YZ=     0.4903   ZZ=   273.9183
   Eigenvalues:   238.8238   277.8133   310.3193
      4  C    Isotropic =   156.5900   Anisotropy =    33.8258
   XX=   142.1378   YX=     3.2775   ZX=     2.0019
   XY=    -1.2099   YY=   170.2414   ZY=    14.2332
   XZ=     0.3765   YZ=    13.4555   ZZ=   157.3909
   Eigenvalues:   142.0455   148.5840   179.1406
      5  H    Isotropic =    28.8829   Anisotropy =     7.1105
   XX=    26.5836   YX=    -3.2728   ZX=     3.2303
   XY=    -4.0316   YY=    31.7240   ZY=     1.4599
   XZ=     3.3875   YZ=     2.2304   ZZ=    28.3410
   Eigenvalues:    22.3098    30.7156    33.6232
      6  H    Isotropic =    29.2718   Anisotropy =     5.5713
   XX=    28.9939   YX=     1.0854   ZX=    -3.7793
   XY=     3.2153   YY=    29.4793   ZY=     2.7308
   XZ=    -3.7613   YZ=     2.2138   ZZ=    29.3422
   Eigenvalues:    23.5849    31.2445    32.9860
      7  C    Isotropic =   171.3760   Anisotropy =    20.9603
   XX=   164.7057   YX=     2.3331   ZX=    -0.0944
   XY=     3.3858   YY=   182.4647   ZY=     6.5230
   XZ=     0.5243   YZ=     6.9478   ZZ=   166.9575
   Eigenvalues:   163.5950   165.1834   185.3495
      8  H    Isotropic =    30.4230   Anisotropy =     8.6626
   XX=    28.4632   YX=    -2.2257   ZX=     2.2452
   XY=    -2.9363   YY=    35.3178   ZY=     0.8429
   XZ=     2.0898   YZ=     1.3898   ZZ=    27.4880
   Eigenvalues:    25.1273    29.9436    36.1981
      9  H    Isotropic =    30.0400   Anisotropy =    13.1962
   XX=    24.7081   YX=     0.3437   ZX=    -0.0570
   XY=     0.4977   YY=    30.8914   ZY=     6.5654
   XZ=    -0.3030   YZ=     5.1467   ZZ=    34.5204
   Eigenvalues:    24.6065    26.6760    38.8374
     10  H    Isotropic =    30.1001   Anisotropy =     7.9297
   XX=    31.2054   YX=     3.0587   ZX=    -1.1623
   XY=     4.4890   YY=    31.7884   ZY=     1.8971
   XZ=    -0.9222   YZ=     2.4340   ZZ=    27.3064
   Eigenvalues:    25.2216    29.6921    35.3865
     11  C    Isotropic =   147.4262   Anisotropy =    31.8517
   XX=   154.9484   YX=     0.0066   ZX=    -8.3967
   XY=     3.7313   YY=   161.9626   ZY=   -12.5595
   XZ=   -10.6698   YZ=   -15.5825   ZZ=   125.3676
   Eigenvalues:   118.6039   155.0141   168.6607
     12  H    Isotropic =    28.7509   Anisotropy =     8.3668
   XX=    26.2974   YX=    -2.3529   ZX=    -4.6031
   XY=    -1.9190   YY=    33.7586   ZY=    -0.8119
   XZ=    -4.8200   YZ=    -1.9044   ZZ=    26.1967
   Eigenvalues:    21.0547    30.8693    34.3288
     13  C    Isotropic =   164.7128   Anisotropy =    21.2296
   XX=   170.8937   YX=    -9.2974   ZX=    -6.1046
   XY=    -9.0667   YY=   153.9601   ZY=    -1.8132
   XZ=    -8.6491   YZ=    -2.6123   ZZ=   169.2846
   Eigenvalues:   148.6499   166.6226   178.8659
     14  H    Isotropic =    29.1364   Anisotropy =     9.4868
   XX=    30.9477   YX=     1.2305   ZX=    -1.3795
   XY=     1.5074   YY=    31.3529   ZY=    -4.9824
   XZ=    -1.9906   YZ=    -5.9795   ZZ=    25.1085
   Eigenvalues:    21.8554    30.0928    35.4609
     15  H    Isotropic =    29.8109   Anisotropy =     5.8911
   XX=    28.0772   YX=    -1.4569   ZX=     2.1768
   XY=     1.8364   YY=    29.3583   ZY=    -1.0389
   XZ=     4.0931   YZ=     1.1264   ZZ=    31.9971
   Eigenvalues:    26.3330    29.3614    33.7383
     16  C    Isotropic =   175.2984   Anisotropy =    19.8118
   XX=   184.3740   YX=    -5.7817   ZX=    -8.0896
   XY=    -2.7553   YY=   174.2963   ZY=     1.8813
   XZ=    -6.7577   YZ=     0.4298   ZZ=   167.2248
   Eigenvalues:   164.4392   172.9497   188.5063
     17  H    Isotropic =    30.9292   Anisotropy =    12.1406
   XX=    34.1023   YX=    -5.0985   ZX=     3.3391
   XY=    -4.4836   YY=    31.7570   ZY=    -3.1669
   XZ=     2.0411   YZ=    -2.1083   ZZ=    26.9283
   Eigenvalues:    25.7006    28.0640    39.0229
     18  H    Isotropic =    32.1537   Anisotropy =    14.4875
   XX=    32.3181   YX=     2.6465   ZX=    -2.5370
   XY=     3.8961   YY=    40.3304   ZY=    -0.3098
   XZ=    -2.9329   YZ=    -2.7450   ZZ=    23.8125
   Eigenvalues:    22.9906    31.6584    41.8120
     19  H    Isotropic =    31.0414   Anisotropy =     8.7599
   XX=    30.7604   YX=    -2.8315   ZX=    -0.5663
   XY=    -1.2008   YY=    32.3830   ZY=     5.3301
   XZ=    -0.0839   YZ=     4.7305   ZZ=    29.9808
   Eigenvalues:    25.7982    30.4446    36.8814
     20  C    Isotropic =   155.9023   Anisotropy =    20.2659
   XX=   152.1580   YX=    -7.7640   ZX=    -2.0868
   XY=   -11.2027   YY=   151.7051   ZY=     4.3901
   XZ=     1.8246   YZ=    12.1486   ZZ=   163.8437
   Eigenvalues:   140.8535   157.4404   169.4129
     21  H    Isotropic =    29.3453   Anisotropy =     9.4104
   XX=    26.2795   YX=    -0.2993   ZX=    -1.1857
   XY=    -0.0464   YY=    35.3531   ZY=     1.3775
   XZ=    -1.2455   YZ=     1.6623   ZZ=    26.4034
   Eigenvalues:    25.0369    27.3801    35.6189
     22  H    Isotropic =    29.1661   Anisotropy =     9.5339
   XX=    33.9145   YX=     0.7426   ZX=     2.8271
   XY=    -0.5343   YY=    26.8091   ZY=     2.8672
   XZ=     4.0945   YZ=     3.4044   ZZ=    26.7747
   Eigenvalues:    23.0841    28.8921    35.5221
     23  C    Isotropic =   172.0947   Anisotropy =    20.2730
   XX=   158.2649   YX=     0.6528   ZX=     0.7675
   XY=    -1.0366   YY=   172.4515   ZY=    -0.7735
   XZ=    -2.0344   YZ=    -0.4401   ZZ=   185.5678
   Eigenvalues:   158.2472   172.4269   185.6101
     24  H    Isotropic =    30.5304   Anisotropy =     9.4774
   XX=    31.4345   YX=     2.0176   ZX=     2.9177
   XY=     1.1320   YY=    26.7051   ZY=     2.8750
   XZ=     3.5646   YZ=     2.7521   ZZ=    33.4516
   Eigenvalues:    25.6530    29.0896    36.8487
     25  H    Isotropic =    30.2386   Anisotropy =     5.8175
   XX=    25.1924   YX=     1.3713   ZX=    -0.7393
   XY=     1.3125   YY=    32.9882   ZY=     2.0313
   XZ=    -0.8831   YZ=     0.5772   ZZ=    32.5352
   Eigenvalues:    24.8313    31.7676    34.1170
     26  H    Isotropic =    30.1098   Anisotropy =    13.0982
   XX=    27.8601   YX=    -2.1089   ZX=    -3.3689
   XY=    -2.4206   YY=    27.8714   ZY=     4.3108
   XZ=    -4.5568   YZ=     4.9279   ZZ=    34.5980
   Eigenvalues:    25.4409    26.0466    38.8420
     27  C    Isotropic =   163.9737   Anisotropy =    28.3756
   XX=   158.8939   YX=     4.4779   ZX=     1.4052
   XY=    10.1947   YY=   180.6480   ZY=     1.1083
   XZ=     1.9557   YZ=    -2.1361   ZZ=   152.3793
   Eigenvalues:   151.7493   157.2811   182.8908
     28  H    Isotropic =    30.3307   Anisotropy =     9.5356
   XX=    31.3845   YX=    -0.1093   ZX=    -3.3532
   XY=    -2.9722   YY=    35.3484   ZY=     1.1122
   XZ=    -3.9597   YZ=     2.7080   ZZ=    24.2594
   Eigenvalues:    22.6072    31.6972    36.6878
     29  H    Isotropic =    30.2285   Anisotropy =     8.4054
   XX=    28.7112   YX=     0.7115   ZX=     4.4392
   XY=    -2.3324   YY=    35.0519   ZY=    -1.0954
   XZ=     4.9448   YZ=    -1.8379   ZZ=    26.9225
   Eigenvalues:    23.0085    31.8450    35.8321
     30  C    Isotropic =   177.2865   Anisotropy =    18.5351
   XX=   170.7937   YX=     2.8180   ZX=     0.0298
   XY=     2.4710   YY=   189.2165   ZY=     0.8152
   XZ=     0.5967   YZ=     1.0868   ZZ=   171.8493
   Eigenvalues:   170.3990   171.8172   189.6432
     31  H    Isotropic =    30.5519   Anisotropy =    12.7821
   XX=    34.9233   YX=     4.6035   ZX=     1.1490
   XY=     5.6428   YY=    32.4072   ZY=     0.9032
   XZ=     1.1431   YZ=     0.7078   ZZ=    24.3252
   Eigenvalues:    24.1913    28.3911    39.0733
     32  H    Isotropic =    30.7518   Anisotropy =    10.1260
   XX=    28.5249   YX=     1.8834   ZX=    -2.0703
   XY=     0.6238   YY=    34.2722   ZY=     5.4081
   XZ=    -1.9993   YZ=     4.7867   ZZ=    29.4582
   Eigenvalues:    24.7251    30.0278    37.5024
     33  H    Isotropic =    30.7217   Anisotropy =     9.7818
   XX=    27.4987   YX=     2.8722   ZX=     1.7960
   XY=     1.5838   YY=    34.5866   ZY=    -4.6607
   XZ=     1.7080   YZ=    -3.8092   ZZ=    30.0798
   Eigenvalues:    24.8263    30.0959    37.2429
     34  C    Isotropic =   157.3397   Anisotropy =    22.0621
   XX=   150.5427   YX=    -7.4289   ZX=    -4.8687
   XY=   -10.8879   YY=   152.3368   ZY=    -4.9168
   XZ=    -7.4257   YZ=    -8.8508   ZZ=   169.1397
   Eigenvalues:   139.4008   160.5705   172.0478
     35  H    Isotropic =    29.3200   Anisotropy =     9.9395
   XX=    24.8782   YX=     0.8950   ZX=     0.8098
   XY=     1.1940   YY=    35.1226   ZY=    -2.3235
   XZ=     0.7218   YZ=    -2.6184   ZZ=    27.9591
   Eigenvalues:    24.4329    27.5807    35.9463
     36  H    Isotropic =    28.7639   Anisotropy =    10.3674
   XX=    35.6006   YX=     0.7140   ZX=    -0.1098
   XY=    -0.8488   YY=    24.9520   ZY=    -3.0262
   XZ=    -1.5730   YZ=    -3.0146   ZZ=    25.7391
   Eigenvalues:    22.2719    28.3443    35.6755
     37  C    Isotropic =   171.2584   Anisotropy =    18.5599
   XX=   159.2591   YX=    -0.1744   ZX=    -8.6754
   XY=    -2.4350   YY=   173.6907   ZY=     2.1750
   XZ=    -5.4403   YZ=     2.5561   ZZ=   180.8255
   Eigenvalues:   157.1344   173.0092   183.6317
     38  H    Isotropic =    30.1125   Anisotropy =    13.2958
   XX=    25.5438   YX=    -0.4828   ZX=    -0.3201
   XY=    -1.0792   YY=    27.3523   ZY=    -3.9647
   XZ=     0.6747   YZ=    -4.4398   ZZ=    37.4414
   Eigenvalues:    24.9903    26.3709    38.9764
     39  H    Isotropic =    30.1836   Anisotropy =     5.4633
   XX=    25.6056   YX=     1.8035   ZX=    -1.4165
   XY=     2.2295   YY=    32.5083   ZY=    -1.3771
   XZ=    -1.3561   YZ=     0.1074   ZZ=    32.4369
   Eigenvalues:    24.8752    31.8498    33.8258
     40  H    Isotropic =    30.4280   Anisotropy =     8.5799
   XX=    33.8455   YX=     0.1319   ZX=    -2.9490
   XY=    -1.1435   YY=    26.2684   ZY=    -1.8572
   XZ=    -3.7966   YZ=    -0.8259   ZZ=    31.1702
   Eigenvalues:    25.6550    29.4811    36.1480
     41  Sn   Isotropic =  2155.7633   Anisotropy =   831.5178
   XX=  2704.5151   YX=    -8.8852   ZX=    69.5891
   XY=   -17.5564   YY=  1972.3582   ZY=   -10.0763
   XZ=    70.3243   YZ=   -14.8486   ZZ=  1790.4168
   Eigenvalues:  1784.3989  1972.7826  2710.1085
     42  Cl   Isotropic =   754.7936   Anisotropy =   323.6869
   XX=   760.5936   YX=    40.1081   ZX=  -173.9753
   XY=    22.7212   YY=   701.0741   ZY=   -24.2446
   XZ=  -192.0814   YZ=   -15.0077   ZZ=   802.7131
   Eigenvalues:   596.3521   697.4439   970.5849
     43  Cl   Isotropic =   749.6382   Anisotropy =   315.4058
   XX=   694.9143   YX=   121.7581   ZX=   115.5836
   XY=    99.1826   YY=   770.0046   ZY=    76.7729
   XZ=   144.9200   YZ=    68.3663   ZZ=   783.9957
   Eigenvalues:   584.7513   704.2546   959.9088
     44  Cl   Isotropic =   750.9761   Anisotropy =   296.1397
   XX=   710.9139   YX=  -147.8200   ZX=    49.3269
   XY=  -129.0469   YY=   833.0877   ZY=   -59.3170
   XZ=    48.0193   YZ=   -62.2153   ZZ=   708.9267
   Eigenvalues:   619.8555   684.6703   948.4025
     45  C    Isotropic =   170.6769   Anisotropy =    21.4110
   XX=   163.2831   YX=     6.6353   ZX=    -5.3791
   XY=     3.7287   YY=   181.6331   ZY=    -4.8471
   XZ=    -6.3067   YZ=    -3.9853   ZZ=   167.1145
   Eigenvalues:   158.9156   168.1642   184.9509
     46  H    Isotropic =    29.9738   Anisotropy =    12.1073
   XX=    32.3164   YX=     2.8363   ZX=    -3.7806
   XY=     4.2413   YY=    30.7660   ZY=    -3.8873
   XZ=    -4.7382   YZ=    -3.6487   ZZ=    26.8390
   Eigenvalues:    23.9449    27.9312    38.0453
     47  H    Isotropic =    30.1713   Anisotropy =     9.2698
   XX=    28.8857   YX=     0.7141   ZX=     1.3370
   XY=    -0.2018   YY=    29.8075   ZY=    -5.4147
   XZ=     1.7683   YZ=    -5.1792   ZZ=    31.8207
   Eigenvalues:    25.0457    29.1169    36.3512
     48  H    Isotropic =    30.3573   Anisotropy =     8.3588
   XX=    26.0768   YX=     1.0950   ZX=    -1.8423
   XY=     1.1076   YY=    35.5517   ZY=     2.0714
   XZ=    -2.1434   YZ=     0.8653   ZZ=    29.4434
   Eigenvalues:    24.9026    30.2395    35.9299
     49  H    Isotropic =    28.4033   Anisotropy =     9.7490
   XX=    30.0659   YX=    -1.4278   ZX=     3.1059
   XY=    -1.9465   YY=    30.9446   ZY=    -4.6197
   XZ=     2.9748   YZ=    -4.1450   ZZ=    24.1994
   Eigenvalues:    21.5395    28.7677    34.9026
     50  C    Isotropic =    -1.8269   Anisotropy =   142.1464
   XX=   -39.3421   YX=     8.5544   ZX=    14.9121
   XY=     2.9005   YY=    92.6869   ZY=    -0.3059
   XZ=    -1.0888   YZ=    -1.5134   ZZ=   -58.8255
   Eigenvalues:   -61.0728   -37.3453    92.9374
     51  C    Isotropic =    37.1158   Anisotropy =   140.1789
   XX=    32.8736   YX=     4.3213   ZX=   -27.7537
   XY=     2.8034   YY=   130.4043   ZY=    -3.0317
   XZ=   -42.4315   YZ=     0.7717   ZZ=   -51.9306
   Eigenvalues:   -64.5689    45.3478   130.5684
     52  C    Isotropic =    54.4456   Anisotropy =   159.5140
   XX=    26.6778   YX=     6.7029   ZX=    28.4322
   XY=     9.5338   YY=   160.2967   ZY=    -3.5997
   XZ=    51.6700   YZ=    -1.3537   ZZ=   -23.6379
   Eigenvalues:   -45.9575    48.5060   160.7882
     53  C    Isotropic =    50.2999   Anisotropy =   209.1042
   XX=    -9.1373   YX=    11.8457   ZX=    39.1533
   XY=    13.5232   YY=   188.8848   ZY=    -0.5337
   XZ=    31.2122   YZ=    -1.2328   ZZ=   -28.8477
   Eigenvalues:   -55.8172    17.0142   189.7027
     54  H    Isotropic =    23.7794   Anisotropy =    15.5046
   XX=    30.7255   YX=    -1.3485   ZX=    -6.8131
   XY=    -1.0072   YY=    20.0746   ZY=    -0.4031
   XZ=    -6.5771   YZ=     0.1597   ZZ=    20.5380
   Eigenvalues:    17.0830    20.1393    34.1158
     55  C    Isotropic =    56.7093   Anisotropy =   194.3393
   XX=    24.8855   YX=     9.7387   ZX=   -46.9714
   XY=     7.2688   YY=   185.8108   ZY=    -1.8296
   XZ=   -34.3254   YZ=     3.1737   ZZ=   -40.5684
   Eigenvalues:   -60.1017    43.9608   186.2688
     56  H    Isotropic =    23.6384   Anisotropy =    13.4649
   XX=    27.0238   YX=    -1.1182   ZX=     7.0151
   XY=    -0.6344   YY=    19.5029   ZY=    -0.3011
   XZ=     6.4370   YZ=    -0.2392   ZZ=    24.3884
   Eigenvalues:    18.6923    19.6079    32.6150
     57  C    Isotropic =    47.1275   Anisotropy =   124.3214
   XX=   -36.2419   YX=     9.7871   ZX=    -5.1717
   XY=    12.9314   YY=   129.1637   ZY=    -4.3496
   XZ=   -10.5399   YZ=     0.7038   ZZ=    48.4607
   Eigenvalues:   -37.7090    49.0831   130.0084
     58  H    Isotropic =    23.7518   Anisotropy =     5.7261
   XX=    27.5451   YX=    -0.3189   ZX=    -0.1755
   XY=    -0.4954   YY=    20.3689   ZY=    -0.1352
   XZ=     0.3024   YZ=    -0.0141   ZZ=    23.3414
   Eigenvalues:    20.3442    23.3420    27.5692
     59  H    Isotropic =    24.6890   Anisotropy =     3.1937
   XX=    25.0512   YX=     0.0760   ZX=    -0.4035
   XY=     0.0806   YY=    22.2017   ZY=     0.2041
   XZ=     0.2560   YZ=    -0.0668   ZZ=    26.8141
   Eigenvalues:    22.1985    25.0504    26.8181
     60  C    Isotropic =   157.5768   Anisotropy =    50.2549
   XX=   170.1958   YX=    -0.9132   ZX=   -15.9839
   XY=    -4.4449   YY=   126.5688   ZY=     2.9128
   XZ=   -19.3946   YZ=    -1.6448   ZZ=   175.9656
   Eigenvalues:   126.4002   155.2500   191.0800
     61  H    Isotropic =    28.8574   Anisotropy =     7.8302
   XX=    28.8596   YX=    -0.6882   ZX=    -2.7956
   XY=     0.1540   YY=    28.5228   ZY=     5.2208
   XZ=    -2.1708   YZ=     3.5881   ZZ=    29.1896
   Eigenvalues:    23.9428    28.5518    34.0775
     62  H    Isotropic =    28.9408   Anisotropy =     6.5759
   XX=    29.5913   YX=    -0.7423   ZX=    -2.6800
   XY=    -1.9489   YY=    26.5527   ZY=    -4.2691
   XZ=    -1.0134   YZ=    -3.6635   ZZ=    30.6784
   Eigenvalues:    23.4155    30.0822    33.3247
     63  H    Isotropic =    30.0579   Anisotropy =     8.2155
   XX=    35.3203   YX=     0.8273   ZX=     0.2388
   XY=     0.4620   YY=    26.4369   ZY=     0.1796
   XZ=    -2.4420   YZ=    -0.0354   ZZ=    28.4165
   Eigenvalues:    26.3783    28.2605    35.5349
 End of Minotr F.D. properties file   721 does not exist.
 End of Minotr F.D. properties file   722 does not exist.
 End of Minotr F.D. properties file   788 does not exist.
 Leave Link 1002 at Mon Aug 26 09:27:00 2019, MaxMem=   939524096 cpu:     42006.9
 (Enter /scr/programas/g09/l601.exe)
 Copying SCF densities to generalized density rwf, IOpCl= 0 IROHF=0.

 **********************************************************************

            Population analysis using the SCF density.

 **********************************************************************

 Orbital symmetries:
       Occupied  (A) (A) (A) (A) (A) (A) (A) (A) (A) (A) (A) (A)
                 (A) (A) (A) (A) (A) (A) (A) (A) (A) (A) (A) (A)
                 (A) (A) (A) (A) (A) (A) (A) (A) (A) (A) (A) (A)
                 (A) (A) (A) (A) (A) (A) (A) (A) (A) (A) (A) (A)
                 (A) (A) (A) (A) (A) (A) (A) (A) (A) (A) (A) (A)
                 (A) (A) (A) (A) (A) (A) (A) (A) (A) (A) (A) (A)
                 (A) (A) (A) (A) (A) (A) (A) (A) (A) (A) (A) (A)
                 (A) (A) (A) (A) (A) (A) (A) (A) (A) (A) (A) (A)
                 (A) (A) (A) (A) (A) (A) (A) (A) (A) (A) (A) (A)
                 (A) (A) (A) (A) (A) (A) (A) (A) (A) (A) (A) (A)
                 (A) (A) (A) (A) (A) (A) (A) (A) (A) (A) (A) (A)
                 (A) (A) (A) (A) (A) (A) (A) (A) (A) (A) (A) (A)
                 (A) (A) (A) (A) (A) (A) (A) (A) (A) (A) (A) (A)
                 (A) (A) (A) (A) (A) (A) (A) (A) (A) (A) (A) (A)
                 (A) (A) (A) (A) (A) (A) (A) (A) (A) (A) (A) (A)
       Virtual   (A) (A) (A) (A) (A) (A) (A) (A) (A) (A) (A) (A)
                 (A) (A) (A) (A) (A) (A) (A) (A) (A) (A) (A) (A)
                 (A) (A) (A) (A) (A) (A) (A) (A) (A) (A) (A) (A)
                 (A) (A) (A) (A) (A) (A) (A) (A) (A) (A) (A) (A)
                 (A) (A) (A) (A) (A) (A) (A) (A) (A) (A) (A) (A)
                 (A) (A) (A) (A) (A) (A) (A) (A) (A) (A) (A) (A)
                 (A) (A) (A) (A) (A) (A) (A) (A) (A) (A) (A) (A)
                 (A) (A) (A) (A) (A) (A) (A) (A) (A) (A) (A) (A)
                 (A) (A) (A) (A) (A) (A) (A) (A) (A) (A) (A) (A)
                 (A) (A) (A) (A) (A) (A) (A) (A) (A) (A) (A) (A)
                 (A) (A) (A) (A) (A) (A) (A) (A) (A) (A) (A) (A)
                 (A) (A) (A) (A) (A) (A) (A) (A) (A) (A) (A) (A)
                 (A) (A) (A) (A) (A) (A) (A) (A) (A) (A) (A) (A)
                 (A) (A) (A) (A) (A) (A) (A) (A) (A) (A) (A) (A)
                 (A) (A) (A) (A) (A) (A) (A) (A) (A) (A) (A) (A)
                 (A) (A) (A) (A) (A) (A) (A) (A) (A) (A) (A) (A)
                 (A) (A) (A) (A) (A) (A) (A) (A) (A) (A) (A) (A)
                 (A) (A) (A) (A) (A) (A) (A) (A) (A) (A) (A) (A)
                 (A) (A) (A) (A) (A) (A) (A) (A) (A) (A) (A) (A)
                 (A) (A) (A) (A) (A) (A) (A) (A) (A) (A) (A) (A)
                 (A) (A) (A) (A) (A) (A) (A) (A) (A) (A) (A) (A)
                 (A) (A) (A) (A) (A) (A) (A) (A) (A) (A) (A) (A)
                 (A) (A) (A) (A) (A) (A) (A) (A) (A) (A) (A) (A)
                 (A) (A) (A) (A) (A) (A) (A) (A) (A) (A) (A) (A)
                 (A) (A) (A) (A) (A) (A) (A) (A) (A) (A) (A) (A)
                 (A) (A) (A) (A) (A) (A) (A) (A) (A) (A) (A) (A)
                 (A) (A) (A) (A) (A) (A) (A) (A) (A) (A) (A) (A)
                 (A) (A) (A) (A) (A) (A) (A) (A) (A) (A) (A) (A)
                 (A) (A) (A) (A) (A) (A) (A) (A) (A) (A) (A) (A)
                 (A) (A) (A) (A) (A) (A) (A) (A) (A) (A) (A) (A)
                 (A) (A) (A) (A) (A) (A) (A) (A) (A) (A) (A) (A)
                 (A) (A) (A) (A) (A) (A) (A) (A) (A) (A) (A) (A)
                 (A) (A) (A) (A) (A) (A) (A) (A) (A) (A) (A) (A)
                 (A) (A) (A) (A) (A) (A) (A) (A) (A) (A) (A) (A)
                 (A) (A) (A) (A) (A) (A) (A) (A) (A) (A) (A) (A)
                 (A) (A) (A) (A) (A) (A) (A) (A) (A) (A) (A) (A)
                 (A) (A) (A) (A) (A) (A) (A) (A) (A) (A) (A) (A)
                 (A) (A) (A) (A) (A) (A) (A) (A) (A) (A) (A) (A)
                 (A) (A) (A) (A) (A) (A) (A) (A) (A) (A) (A) (A)
                 (A) (A) (A) (A) (A) (A) (A) (A) (A) (A) (A) (A)
                 (A) (A) (A) (A) (A) (A) (A) (A) (A) (A) (A) (A)
                 (A) (A) (A) (A) (A) (A) (A) (A) (A) (A) (A) (A)
                 (A) (A) (A) (A) (A) (A) (A) (A) (A) (A) (A) (A)
                 (A) (A) (A) (A) (A) (A) (A) (A) (A) (A) (A) (A)
                 (A) (A) (A) (A) (A) (A) (A) (A) (A) (A) (A) (A)
                 (A) (A) (A) (A) (A) (A) (A) (A) (A) (A) (A) (A)
                 (A) (A) (A) (A) (A) (A) (A) (A) (A) (A) (A) (A)
                 (A) (A) (A) (A) (A) (A) (A) (A) (A) (A) (A) (A)
                 (A) (A) (A) (A) (A) (A) (A) (A) (A) (A) (A) (A)
                 (A) (A) (A) (A) (A) (A) (A) (A) (A) (A) (A) (A)
                 (A) (A) (A) (A) (A) (A) (A) (A) (A) (A) (A) (A)
                 (A) (A) (A) (A) (A) (A) (A) (A) (A) (A) (A) (A)
                 (A) (A) (A) (A) (A) (A) (A) (A) (A) (A) (A) (A)
                 (A) (A) (A) (A) (A) (A) (A) (A) (A) (A) (A) (A)
                 (A) (A) (A) (A) (A) (A) (A) (A) (A) (A) (A) (A)
                 (A) (A) (A) (A) (A) (A) (A) (A) (A) (A) (A) (A)
                 (A) (A) (A) (A) (A) (A) (A) (A) (A) (A) (A) (A)
                 (A) (A) (A) (A) (A) (A) (A) (A) (A) (A) (A) (A)
                 (A) (A) (A) (A) (A) (A) (A) (A) (A) (A) (A) (A)
                 (A) (A) (A) (A) (A) (A) (A) (A) (A) (A) (A) (A)
                 (A) (A) (A) (A) (A) (A) (A) (A) (A) (A) (A) (A)
                 (A) (A) (A) (A) (A) (A) (A) (A) (A) (A) (A) (A)
                 (A) (A) (A) (A) (A) (A) (A) (A) (A) (A) (A) (A)
                 (A) (A) (A) (A) (A) (A) (A) (A) (A) (A) (A) (A)
                 (A) (A) (A) (A) (A) (A) (A) (A) (A) (A) (A) (A)
                 (A) (A) (A) (A) (A) (A) (A) (A) (A) (A) (A) (A)
                 (A) (A) (A) (A) (A) (A) (A) (A) (A) (A) (A) (A)
                 (A) (A) (A) (A) (A) (A) (A) (A) (A) (A) (A) (A)
                 (A) (A) (A) (A) (A) (A) (A) (A) (A) (A) (A) (A)
                 (A) (A) (A) (A) (A) (A) (A) (A) (A) (A) (A) (A)
                 (A) (A) (A) (A) (A) (A) (A) (A) (A) (A) (A) (A)
                 (A) (A) (A) (A) (A) (A) (A) (A) (A) (A) (A) (A)
                 (A) (A) (A) (A) (A) (A) (A) (A) (A) (A) (A) (A)
                 (A) (A) (A) (A) (A) (A) (A) (A) (A) (A) (A) (A)
                 (A) (A) (A) (A) (A) (A) (A) (A) (A) (A) (A) (A)
                 (A) (A) (A) (A) (A) (A) (A) (A) (A) (A) (A) (A)
                 (A) (A) (A) (A) (A) (A) (A) (A) (A) (A) (A) (A)
                 (A) (A) (A) (A) (A) (A) (A) (A) (A) (A) (A) (A)
                 (A) (A) (A) (A) (A) (A) (A) (A) (A) (A) (A) (A)
                 (A) (A) (A) (A) (A) (A) (A) (A) (A) (A) (A) (A)
                 (A) (A) (A) (A) (A) (A) (A) (A) (A) (A) (A) (A)
                 (A) (A) (A) (A) (A) (A) (A) (A) (A) (A) (A) (A)
                 (A) (A) (A) (A) (A) (A) (A) (A) (A) (A) (A) (A)
                 (A) (A) (A) (A) (A) (A) (A) (A) (A) (A) (A) (A)
                 (A) (A) (A) (A) (A) (A) (A) (A) (A) (A) (A) (A)
                 (A) (A) (A) (A) (A) (A) (A) (A) (A) (A) (A) (A)
                 (A) (A) (A) (A) (A) (A) (A) (A) (A) (A) (A) (A)
                 (A) (A)
 The electronic state is 1-A.
 Alpha  occ. eigenvalues -- ********************-427.53610-414.86659-414.86619
 Alpha  occ. eigenvalues -- -414.86346-149.64811-141.92620-141.92616-141.92544
 Alpha  occ. eigenvalues -- -100.55344-100.55220-100.55205 -99.91635 -92.07496
 Alpha  occ. eigenvalues --  -92.07367 -92.07023 -79.03375 -79.03254 -79.03062
 Alpha  occ. eigenvalues --  -79.02997 -79.02954 -76.29732 -76.29526 -28.81224
 Alpha  occ. eigenvalues --  -25.15857 -25.15849 -25.15620 -20.83095 -17.70747
 Alpha  occ. eigenvalues --  -17.70747 -17.70592 -17.70588 -17.70543 -17.39940
 Alpha  occ. eigenvalues --  -17.39700 -17.38963 -11.58312 -11.57887 -11.57492
 Alpha  occ. eigenvalues --  -11.57370 -11.57287  -9.90607  -9.90597  -9.90579
 Alpha  occ. eigenvalues --   -9.90495  -9.90453  -9.90445  -9.90297  -9.90170
 Alpha  occ. eigenvalues --   -9.89405  -9.89014  -9.89008  -9.88932  -9.88924
 Alpha  occ. eigenvalues --   -9.88900  -9.88790  -9.88770  -9.88618  -9.88583
 Alpha  occ. eigenvalues --   -9.88506  -9.13207  -9.13078  -9.13066  -6.96960
 Alpha  occ. eigenvalues --   -6.96825  -6.96823  -6.96414  -6.96403  -6.96293
 Alpha  occ. eigenvalues --   -6.96274  -6.96274  -6.96258  -6.32731  -6.32572
 Alpha  occ. eigenvalues --   -4.55266  -4.55261  -4.55099  -4.55088  -4.54982
 Alpha  occ. eigenvalues --   -4.54835  -4.49964  -3.23416  -3.23388  -3.22983
 Alpha  occ. eigenvalues --   -3.13173  -3.13134  -3.12696  -3.12395  -3.12281
 Alpha  occ. eigenvalues --   -3.12189  -3.12155  -2.86042  -1.81050  -1.80876
 Alpha  occ. eigenvalues --   -1.78376  -1.02448  -1.02443  -1.02078  -1.02039
 Alpha  occ. eigenvalues --   -1.01943  -0.77676  -0.73364  -0.73230  -0.71846
 Alpha  occ. eigenvalues --   -0.70335  -0.70278  -0.69720  -0.69499  -0.69241
 Alpha  occ. eigenvalues --   -0.69004  -0.68973  -0.66741  -0.61590  -0.61256
 Alpha  occ. eigenvalues --   -0.60962  -0.57103  -0.56668  -0.56439  -0.55512
 Alpha  occ. eigenvalues --   -0.53765  -0.51731  -0.48938  -0.48167  -0.45198
 Alpha  occ. eigenvalues --   -0.43009  -0.42415  -0.42199  -0.41878  -0.41421
 Alpha  occ. eigenvalues --   -0.41057  -0.40805  -0.40307  -0.39012  -0.38479
 Alpha  occ. eigenvalues --   -0.38196  -0.37801  -0.37600  -0.37244  -0.37149
 Alpha  occ. eigenvalues --   -0.36651  -0.36433  -0.35994  -0.35565  -0.35163
 Alpha  occ. eigenvalues --   -0.34739  -0.34373  -0.33804  -0.33751  -0.33356
 Alpha  occ. eigenvalues --   -0.33097  -0.32676  -0.32207  -0.32019  -0.31852
 Alpha  occ. eigenvalues --   -0.31778  -0.31650  -0.31253  -0.30930  -0.30847
 Alpha  occ. eigenvalues --   -0.30119  -0.29671  -0.29644  -0.28892  -0.28555
 Alpha  occ. eigenvalues --   -0.28193  -0.27884  -0.27325  -0.27058  -0.26995
 Alpha  occ. eigenvalues --   -0.26081  -0.25658  -0.25633  -0.25328  -0.25069
 Alpha  occ. eigenvalues --   -0.23442  -0.22269  -0.21893  -0.20743  -0.19751
 Alpha virt. eigenvalues --   -0.07918  -0.06271  -0.04608  -0.04404  -0.03549
 Alpha virt. eigenvalues --   -0.02806  -0.02223  -0.01667  -0.01389  -0.00572
 Alpha virt. eigenvalues --   -0.00289  -0.00107   0.00151   0.00734   0.01377
 Alpha virt. eigenvalues --    0.01571   0.01915   0.02600   0.03316   0.03429
 Alpha virt. eigenvalues --    0.03623   0.03952   0.04108   0.04364   0.04655
 Alpha virt. eigenvalues --    0.05020   0.05203   0.05364   0.05620   0.05930
 Alpha virt. eigenvalues --    0.06256   0.06380   0.06561   0.07039   0.07077
 Alpha virt. eigenvalues --    0.07300   0.07474   0.07859   0.08171   0.08259
[...]
 Alpha virt. eigenvalues --    0.51159   0.51216   0.51508   0.51898   0.52013
 Alpha virt. eigenvalues --    0.52280   0.52574   0.52701   0.53066   0.53100
 Alpha virt. eigenvalues --    0.53316   0.53444   0.53941   0.53966   0.54093
 Alpha virt. eigenvalues --    0.54529   0.54721   0.55185   0.55385   0.55472
 Alpha virt. eigenvalues --    0.55897   0.56131   0.56220   0.56321   0.56518
 Alpha virt. eigenvalues --    0.56863   0.56911   0.57350   0.57427   0.57965
 Alpha virt. eigenvalues --    0.58080   0.58427   0.58539   0.58763   0.59162
 Alpha virt. eigenvalues --    0.59387   0.59593   0.59869   0.59897   0.60180
 Alpha virt. eigenvalues --    0.60325   0.60476   0.61098   0.61306   0.61333
 Alpha virt. eigenvalues --    0.61631   0.61766   0.61912   0.61980   0.62435
 Alpha virt. eigenvalues --    0.62708   0.62829   0.63149   0.63419   0.63863
 Alpha virt. eigenvalues --    0.64047   0.64294   0.64518   0.64609   0.64889
 Alpha virt. eigenvalues --    0.65237   0.65352   0.65551   0.65784   0.65953
 Alpha virt. eigenvalues --    0.66005   0.66468   0.67135   0.67279   0.67442
 Alpha virt. eigenvalues --    0.67539   0.67653   0.67923   0.68217   0.68529
 Alpha virt. eigenvalues --    0.68730   0.69062   0.69323   0.69689   0.70015
 Alpha virt. eigenvalues --    0.70196   0.70473   0.70762   0.70964   0.71227
 Alpha virt. eigenvalues --    0.71484   0.71579   0.71984   0.72254   0.72351
 Alpha virt. eigenvalues --    0.72728   0.72918   0.73066   0.73495   0.73687
 Alpha virt. eigenvalues --    0.73943   0.74464   0.74685   0.74877   0.75156
 Alpha virt. eigenvalues --    0.75539   0.75669   0.75935   0.76130   0.76622
 Alpha virt. eigenvalues --    0.76878   0.76950   0.77102   0.77155   0.77494
 Alpha virt. eigenvalues --    0.77905   0.78077   0.78466   0.78662   0.78953
 Alpha virt. eigenvalues --    0.78995   0.79656   0.79688   0.80037   0.80134
 Alpha virt. eigenvalues --    0.80351   0.80749   0.80877   0.81255   0.81650
 Alpha virt. eigenvalues --    0.81693   0.81945   0.82094   0.82513   0.82848
 Alpha virt. eigenvalues --    0.83333   0.83491   0.83600   0.83857   0.84108
 Alpha virt. eigenvalues --    0.84466   0.84812   0.85089   0.85450   0.85562
 Alpha virt. eigenvalues --    0.86025   0.86049   0.86528   0.86632   0.87000
 Alpha virt. eigenvalues --    0.87434   0.87706   0.87959   0.88076   0.88371
 Alpha virt. eigenvalues --    0.88680   0.88890   0.89311   0.89588   0.89682
 Alpha virt. eigenvalues --    0.90150   0.90560   0.90816   0.91011   0.91413
 Alpha virt. eigenvalues --    0.91456   0.91900   0.92188   0.92585   0.92829
 Alpha virt. eigenvalues --    0.93059   0.93321   0.93571   0.93667   0.93915
 Alpha virt. eigenvalues --    0.94126   0.94598   0.95007   0.95300   0.95528
 Alpha virt. eigenvalues --    0.96381   0.96581   0.96638   0.96828   0.97573
 Alpha virt. eigenvalues --    0.97828   0.98106   0.98334   0.98610   0.99322
 Alpha virt. eigenvalues --    0.99474   1.00016   1.00247   1.00520   1.00618
 Alpha virt. eigenvalues --    1.01449   1.01621   1.01988   1.02220   1.02546
 Alpha virt. eigenvalues --    1.02657   1.03175   1.03554   1.03910   1.04116
 Alpha virt. eigenvalues --    1.04404   1.04650   1.04817   1.05213   1.05461
 Alpha virt. eigenvalues --    1.06052   1.06154   1.07035   1.07190   1.07702
 Alpha virt. eigenvalues --    1.07892   1.08566   1.09063   1.09362   1.09552
 Alpha virt. eigenvalues --    1.10202   1.10288   1.10421   1.10641   1.11321
 Alpha virt. eigenvalues --    1.11542   1.11718   1.12194   1.12691   1.13157
 Alpha virt. eigenvalues --    1.13526   1.13800   1.14182   1.14329   1.14739
 Alpha virt. eigenvalues --    1.15110   1.15930   1.16007   1.16162   1.16678
 Alpha virt. eigenvalues --    1.17757   1.17923   1.18243   1.18416   1.19078
 Alpha virt. eigenvalues --    1.19409   1.19800   1.20276   1.20770   1.21859
 Alpha virt. eigenvalues --    1.21979   1.22124   1.22621   1.22950   1.23278
 Alpha virt. eigenvalues --    1.23712   1.24262   1.24637   1.25038   1.25906
 Alpha virt. eigenvalues --    1.25984   1.26797   1.27092   1.27654   1.27950
 Alpha virt. eigenvalues --    1.28610   1.29112   1.29431   1.29884   1.30115
 Alpha virt. eigenvalues --    1.30408   1.31141   1.31301   1.32068   1.32558
 Alpha virt. eigenvalues --    1.32904   1.33451   1.33650   1.34029   1.34320
 Alpha virt. eigenvalues --    1.34825   1.35105   1.35609   1.35973   1.36401
 Alpha virt. eigenvalues --    1.36874   1.37167   1.37821   1.38095   1.38285
 Alpha virt. eigenvalues --    1.39164   1.39468   1.39778   1.39957   1.40337
 Alpha virt. eigenvalues --    1.40603   1.41456   1.41772   1.42478   1.42846
 Alpha virt. eigenvalues --    1.43190   1.43515   1.43901   1.44271   1.44965
 Alpha virt. eigenvalues --    1.45339   1.45664   1.45958   1.46434   1.46891
 Alpha virt. eigenvalues --    1.47359   1.47991   1.48527   1.48940   1.49215
 Alpha virt. eigenvalues --    1.49703   1.50278   1.50905   1.51584   1.51755
 Alpha virt. eigenvalues --    1.51901   1.52133   1.52210   1.53077   1.53825
 Alpha virt. eigenvalues --    1.54088   1.54254   1.54772   1.55515   1.56035
 Alpha virt. eigenvalues --    1.56456   1.56953   1.57145   1.57987   1.58606
 Alpha virt. eigenvalues --    1.59009   1.60022   1.60536   1.60895   1.61078
 Alpha virt. eigenvalues --    1.61701   1.62340   1.62689   1.63062   1.64085
 Alpha virt. eigenvalues --    1.64240   1.64959   1.65256   1.66379   1.67059
 Alpha virt. eigenvalues --    1.67409   1.67810   1.69073   1.69400   1.70041
 Alpha virt. eigenvalues --    1.70284   1.70974   1.71378   1.71720   1.72374
 Alpha virt. eigenvalues --    1.72883   1.73877   1.74470   1.74561   1.75166
 Alpha virt. eigenvalues --    1.75218   1.75842   1.76524   1.77459   1.78286
 Alpha virt. eigenvalues --    1.78343   1.79540   1.80066   1.80400   1.80699
 Alpha virt. eigenvalues --    1.81240   1.82012   1.82370   1.82801   1.83490
 Alpha virt. eigenvalues --    1.83932   1.84242   1.84801   1.85119   1.85780
 Alpha virt. eigenvalues --    1.85846   1.86131   1.86703   1.86949   1.88300
 Alpha virt. eigenvalues --    1.88786   1.89252   1.89385   1.89585   1.90277
 Alpha virt. eigenvalues --    1.90513   1.91781   1.92450   1.93086   1.93119
 Alpha virt. eigenvalues --    1.93613   1.94389   1.94453   1.94852   1.95990
 Alpha virt. eigenvalues --    1.96303   1.96545   1.97763   1.97928   1.98199
 Alpha virt. eigenvalues --    1.98970   1.99539   1.99846   2.00083   2.00935
 Alpha virt. eigenvalues --    2.01276   2.01792   2.02205   2.03281   2.04899
 Alpha virt. eigenvalues --    2.05087   2.05635   2.05935   2.06600   2.06942
 Alpha virt. eigenvalues --    2.07873   2.07923   2.08255   2.08741   2.09415
 Alpha virt. eigenvalues --    2.10360   2.11128   2.11412   2.11778   2.12677
 Alpha virt. eigenvalues --    2.13281   2.13763   2.14836   2.15201   2.15797
 Alpha virt. eigenvalues --    2.16113   2.16427   2.16707   2.17039   2.17920
 Alpha virt. eigenvalues --    2.18168   2.19347   2.19435   2.19994   2.20347
 Alpha virt. eigenvalues --    2.21027   2.21670   2.22126   2.22154   2.22500
 Alpha virt. eigenvalues --    2.23753   2.23987   2.24770   2.25685   2.26192
 Alpha virt. eigenvalues --    2.26532   2.27040   2.28366   2.28706   2.29488
 Alpha virt. eigenvalues --    2.29972   2.30494   2.31015   2.31426   2.31799
 Alpha virt. eigenvalues --    2.32206   2.33070   2.33524   2.33572   2.33683
 Alpha virt. eigenvalues --    2.33893   2.34901   2.35764   2.36180   2.36532
 Alpha virt. eigenvalues --    2.36739   2.37083   2.37556   2.37946   2.38575
 Alpha virt. eigenvalues --    2.38932   2.39594   2.39973   2.40469   2.41407
 Alpha virt. eigenvalues --    2.41712   2.42032   2.43038   2.43727   2.43971
 Alpha virt. eigenvalues --    2.44633   2.45474   2.45751   2.46022   2.46935
 Alpha virt. eigenvalues --    2.47142   2.47364   2.48086   2.48847   2.49182
 Alpha virt. eigenvalues --    2.49630   2.50462   2.51100   2.51813   2.52205
 Alpha virt. eigenvalues --    2.52808   2.53883   2.54167   2.55413   2.56040
 Alpha virt. eigenvalues --    2.56762   2.57664   2.58020   2.58639   2.59020
 Alpha virt. eigenvalues --    2.60219   2.61542   2.62217   2.62378   2.63188
 Alpha virt. eigenvalues --    2.63422   2.63749   2.64341   2.64803   2.65515
 Alpha virt. eigenvalues --    2.65627   2.66803   2.67551   2.67921   2.68877
 Alpha virt. eigenvalues --    2.69330   2.70852   2.71088   2.72574   2.73215
 Alpha virt. eigenvalues --    2.73378   2.74361   2.74731   2.74994   2.76802
 Alpha virt. eigenvalues --    2.77317   2.78077   2.78479   2.78771   2.79155
 Alpha virt. eigenvalues --    2.79470   2.80096   2.80828   2.81344   2.81881
 Alpha virt. eigenvalues --    2.82775   2.83468   2.83701   2.85015   2.88657
 Alpha virt. eigenvalues --    2.89179   2.91072   2.92401   2.94470   2.94941
 Alpha virt. eigenvalues --    2.95334   2.96738   2.97542   3.00181   3.00801
 Alpha virt. eigenvalues --    3.01908   3.02414   3.03944   3.05743   3.06225
 Alpha virt. eigenvalues --    3.06902   3.07185   3.08139   3.08492   3.09913
 Alpha virt. eigenvalues --    3.11660   3.12027   3.12628   3.13244   3.13519
 Alpha virt. eigenvalues --    3.14492   3.14627   3.14841   3.15265   3.15847
 Alpha virt. eigenvalues --    3.16366   3.16595   3.17145   3.17644   3.18033
 Alpha virt. eigenvalues --    3.19956   3.20779   3.21958   3.22532   3.23014
 Alpha virt. eigenvalues --    3.23759   3.25190   3.26236   3.27528   3.28254
 Alpha virt. eigenvalues --    3.28684   3.28980   3.29546   3.30385   3.30639
 Alpha virt. eigenvalues --    3.31453   3.31624   3.32604   3.33064   3.33412
 Alpha virt. eigenvalues --    3.34198   3.34744   3.35632   3.36261   3.40634
 Alpha virt. eigenvalues --    3.42547   3.47615   3.48660   3.51141   3.53021
 Alpha virt. eigenvalues --    3.53675   3.59245   3.61854   3.63821   3.70966
 Alpha virt. eigenvalues --    3.75599   3.95374   3.97506   4.00796   4.05541
 Alpha virt. eigenvalues --    4.17851   4.19478   4.20339   4.22284   4.23170
 Alpha virt. eigenvalues --    4.24082   4.26525   4.26706   4.29147   4.31361
 Alpha virt. eigenvalues --    4.35179   4.37692   4.39452   4.41375   4.43930
 Alpha virt. eigenvalues --    4.44556   4.45278   4.46651   4.48479   4.50137
 Alpha virt. eigenvalues --    4.53844   4.66492   4.85560   5.47028   5.59782
 Alpha virt. eigenvalues --    5.66027   5.84651   6.09989   6.14194   6.68713
 Alpha virt. eigenvalues --    6.69480   6.69943   6.70216   6.71701   6.72656
 Alpha virt. eigenvalues --    6.73039   6.73635   6.74125   6.74758   6.74878
 Alpha virt. eigenvalues --    6.75673   6.76432   6.77609   6.79181   6.81066
 Alpha virt. eigenvalues --    6.83291   6.83771   6.86164   6.90238   6.91201
 Alpha virt. eigenvalues --    6.91914   6.92754   6.93381   6.93520   6.94426
 Alpha virt. eigenvalues --    6.95363   6.96411   6.97600   6.98425   6.99172
 Alpha virt. eigenvalues --    6.99988   7.00848   7.03040   7.03818   7.04690
 Alpha virt. eigenvalues --    7.06130   7.06592   7.11071   7.13732   7.14590
 Alpha virt. eigenvalues --    7.24991   7.64688   7.70000   7.71698   7.73182
 Alpha virt. eigenvalues --    7.75673   7.76349   8.49500   8.50678   8.50851
 Alpha virt. eigenvalues --    8.51563   8.51871   8.52761   8.55083   8.61484
 Alpha virt. eigenvalues --    8.71824   9.01455   9.83135   9.83706   9.85394
 Alpha virt. eigenvalues --    9.87328   9.89537   9.90217   9.96634   9.99511
 Alpha virt. eigenvalues --   10.01918  10.05851  10.06449  10.08240  10.10885
 Alpha virt. eigenvalues --   10.33415  14.02960  14.15150  15.59325  16.72570
 Alpha virt. eigenvalues --   16.77029  16.91271  17.02391  17.04874  17.06051
 Alpha virt. eigenvalues --   17.07188  17.07899  17.08145  17.09765  17.12657
 Alpha virt. eigenvalues --   17.14744  17.15748  17.16168  17.19832  17.20390
 Alpha virt. eigenvalues --   17.22162  17.24164  17.28403  17.36933  17.39245
 Alpha virt. eigenvalues --   17.49406  21.07443  21.32089  21.34482  25.46161
 Alpha virt. eigenvalues --   25.55366  25.59512  26.17860  31.67838  31.70074
 Alpha virt. eigenvalues --   31.73693  31.75712  31.80489  42.99488  43.03018
 Alpha virt. eigenvalues --   43.03329  43.05693  43.21726  61.75395  61.86234
 Alpha virt. eigenvalues --   62.96386  78.04915  78.09068  78.21503  82.22162
 Alpha virt. eigenvalues --   86.18527  86.38778  86.40506  89.27472  89.30175
 Alpha virt. eigenvalues --   89.32084  89.32771  89.33843  89.34028  89.35411
 Alpha virt. eigenvalues --   89.38804  89.40693  89.42119  89.42527  89.45737
 Alpha virt. eigenvalues --   89.46185  89.47954  89.50079  89.53489  89.63214
 Alpha virt. eigenvalues --   89.67068  89.74393 121.81846 121.88402 121.91277
 Alpha virt. eigenvalues --  239.14747 257.32904 332.07869 332.19339 428.78037
 Alpha virt. eigenvalues --  428.93891 428.95348 431.66436 431.70888 431.83988
 Alpha virt. eigenvalues --  590.19569 590.24647 590.26794 773.00402 839.55157
 Alpha virt. eigenvalues -- 2068.602962529.931825495.40250********************
 Alpha virt. eigenvalues -- **********
          Condensed to atoms (all electrons):
 Mulliken charges:
               1
     1  Pt   0.316768
     2  P    0.053609
     3  P    0.237013
     4  C   -0.369348
     5  H    0.086379
     6  H    0.092837
     7  C   -0.178969
     8  H    0.108819
     9  H    0.137248
    10  H    0.113296
    11  C   -0.327677
    12  H    0.095066
    13  C   -0.280242
    14  H    0.106434
    15  H    0.081020
    16  C   -0.112993
    17  H    0.117719
    18  H    0.054750
    19  H    0.092715
    20  C   -0.404487
    21  H    0.110548
    22  H    0.081047
    23  C   -0.113296
    24  H    0.106543
    25  H    0.072111
    26  H    0.133048
    27  C   -0.406523
    28  H    0.076958
    29  H    0.081386
    30  C   -0.183006
    31  H    0.136575
    32  H    0.113758
    33  H    0.113558
    34  C   -0.436919
    35  H    0.102774
    36  H    0.087553
    37  C   -0.096477
    38  H    0.135769
    39  H    0.073187
    40  H    0.093245
    41  Sn   0.303811
    42  Cl  -0.285878
    43  Cl  -0.293654
    44  Cl  -0.232782
    45  C   -0.167203
    46  H    0.132315
    47  H    0.115195
    48  H    0.111045
    49  H    0.077723
    50  C    0.294726
    51  C   -0.376430
    52  C    0.055198
    53  C    0.389664
    54  H    0.020624
    55  C    0.030075
    56  H    0.057191
    57  C   -0.916576
    58  H    0.128802
    59  H    0.126212
    60  C   -0.277988
    61  H    0.136603
    62  H    0.132521
    63  H    0.137006
 Sum of Mulliken charges =   0.00000
 Mulliken charges with hydrogens summed into heavy atoms:
               1
     1  Pt   0.316768
     2  P    0.053609
     3  P    0.237013
     4  C   -0.190131
     7  C    0.180395
    11  C   -0.154888
    13  C   -0.092789
    16  C    0.152190
    20  C   -0.212891
    23  C    0.198407
    27  C   -0.248179
    30  C    0.180885
    34  C   -0.246592
    37  C    0.205724
    41  Sn   0.303811
    42  Cl  -0.285878
    43  Cl  -0.293654
    44  Cl  -0.232782
    45  C    0.191353
    50  C    0.294726
    51  C   -0.355805
    52  C    0.112389
    53  C    0.389664
    55  C    0.158877
    57  C   -0.790364
    60  C    0.128143
 Electronic spatial extent (au):  <R**2>=          15646.4546
 Charge=              0.0000 electrons
 Dipole moment (field-independent basis, Debye):
    X=            -13.6741    Y=              1.0895    Z=             -0.7235  Tot=             13.7365
 Quadrupole moment (field-independent basis, Debye-Ang):
   XX=           -282.7307   YY=           -214.2858   ZZ=           -240.6826
   XY=              8.1081   XZ=             -5.7274   YZ=             -0.5977
 Traceless Quadrupole moment (field-independent basis, Debye-Ang):
   XX=            -36.8310   YY=             31.6139   ZZ=              5.2171
   XY=              8.1081   XZ=             -5.7274   YZ=             -0.5977
 Octapole moment (field-independent basis, Debye-Ang**2):
  XXX=           -151.2160  YYY=             -1.9357  ZZZ=             -6.4413  XYY=             -5.6901
  XXY=             11.7552  XXZ=             -4.8928  XZZ=            -22.4821  YZZ=            -10.2664
  YYZ=            -15.0402  XYZ=              0.0735
 Hexadecapole moment (field-independent basis, Debye-Ang**3):
 XXXX=         -10556.0591 YYYY=          -7603.6659 ZZZZ=          -2756.4110 XXXY=             44.7272
 XXXZ=            -34.4784 YYYX=             84.7935 YYYZ=             10.2119 ZZZX=             28.2962
 ZZZY=            -10.0129 XXYY=          -3129.1005 XXZZ=          -2235.6786 YYZZ=          -1717.0778
 XXYZ=             -7.9943 YYXZ=            -44.8811 ZZXY=            -25.6269
 N-N= 7.849550469263D+03 E-N=-7.698244845187D+04  KE= 2.549608477971D+04
 Calculating spin-rotation constants.
 Leave Link  601 at Mon Aug 26 09:32:12 2019, MaxMem=   939524096 cpu:       372.1
 (Enter /scr/programas/g09/l9999.exe)
 1\1\GINC-NQTCM\SP\RPBEPBE\Gen\C19H37Cl3P2Pt1Sn1\NQTCM\26-Aug-2019\0\\#
 PBEPBE/gen scf=(maxcycle=500,conver=4) NMR=GIAO Scrf=(solvent=Dichloro
 methane)\\estrutura 82\\0,1\Pt,0,-0.35419,-0.036133,-0.123987\P,0,-0.1
 87391,2.369861,-0.200935\P,0,-0.624571,-2.413693,-0.027168\C,0,-0.1389
 8,3.00278,1.539568\H,0,0.632583,2.394566,2.038419\H,0,-1.103155,2.7003
 83,1.981281\C,0,0.131322,4.492777,1.77185\H,0,-0.582256,5.141909,1.241
 137\H,0,0.047521,4.720484,2.846844\H,0,1.147384,4.774412,1.457975\C,0,
 1.388613,2.936043,-1.023499\H,0,1.586954,2.217378,-1.833515\C,0,-1.528
 006,3.314448,-1.079552\H,0,-1.075878,4.261554,-1.408975\H,0,-1.751114,
 2.739301,-1.992121\C,0,-2.81496,3.610669,-0.304615\H,0,-3.523369,4.134
 45,-0.966931\H,0,-3.306704,2.698724,0.057381\H,0,-2.629665,4.268243,0.
 558893\C,0,0.411002,-3.337458,-1.253212\H,0,0.209864,-4.412719,-1.1175
 69\H,0,1.459727,-3.182783,-0.950591\C,0,0.188836,-2.914186,-2.707007\H
 ,0,-0.831762,-3.139179,-3.053365\H,0,0.35877,-1.834389,-2.840013\H,0,0
 .888204,-3.449488,-3.368042\C,0,-2.35493,-3.019804,-0.312478\H,0,-2.96
 8592,-2.558825,0.477942\H,0,-2.695946,-2.55232,-1.249663\C,0,-2.557887
 ,-4.536016,-0.352007\H,0,-3.630993,-4.759762,-0.464453\H,0,-2.037326,-
 5.005669,-1.200176\H,0,-2.218554,-5.031168,0.571753\C,0,-0.125281,-3.1
 32884,1.606405\H,0,-0.383977,-4.204605,1.5919\H,0,0.974648,-3.074559,1
 .642479\C,0,-0.739595,-2.434235,2.822772\H,0,-0.436027,-2.949441,3.748
 479\H,0,-0.399642,-1.387983,2.892261\H,0,-1.841689,-2.430502,2.792657\
 Sn,0,2.359066,-0.274339,0.135022\Cl,0,3.777441,0.140163,-1.824961\Cl,0
 ,3.447739,1.24293,1.746223\Cl,0,3.496647,-2.330212,0.869354\C,0,1.4872
 76,4.363938,-1.569976\H,0,2.512017,4.537441,-1.936014\H,0,0.808151,4.5
 30794,-2.419672\H,0,1.274828,5.128531,-0.808352\H,0,2.171707,2.765341,
 -0.266721\C,0,-2.394531,0.14125,-0.302156\C,0,-3.21512,0.182269,0.8365
 71\C,0,-3.006457,0.189638,-1.56727\C,0,-4.618328,0.26612,0.744254\H,0,
 -2.763947,0.147434,1.833728\C,0,-4.399248,0.272785,-1.676572\H,0,-2.40
 0795,0.15307,-2.477542\C,0,-5.201793,0.308603,-0.531203\H,0,-4.863383,
 0.305415,-2.666899\H,0,-6.289694,0.369494,-0.628293\C,0,-5.463018,0.33
 005,1.995303\H,0,-5.354923,1.306605,2.498471\H,0,-5.163432,-0.439779,2
 .725089\H,0,-6.531185,0.190757,1.77011\\Version=EM64L-G09RevD.01\State
 =1-A\HF=-25899.3689173\RMSD=3.097e-05\Dipole=-5.3798116,0.4286357,-0.2
 846362\Quadrupole=-27.3829468,23.5041687,3.8787781,6.0281805,-4.258205
 5,-0.4444126\PG=C01 [X(C19H37Cl3P2Pt1Sn1)]\\@


 ON INDUCTION, OR "WHY DO YOU BELIEVE THE SUN WILL RISE TOMORROW?":

 ... THE FARMER WHO HAS FED THE CHICKEN EVERY DAY THROUGHOUT ITS
 LIFE AT LAST WRINGS ITS NECK INSTEAD, SHOWING THAT MORE REFINED VIEWS
 AS TO THE UNIFORMITY OF NATURE WOULD HAVE BEEN USEFUL TO THE CHICKEN.

                               -- BERTRAND RUSSELL
 Job cpu time:       0 days 18 hours 23 minutes  5.1 seconds.
 File lengths (MBytes):  RWF=   1167 Int=      0 D2E=      0 Chk=     83 Scr=      1
 Normal termination of Gaussian 09 at Mon Aug 26 09:32:13 2019.
