 Entering Gaussian System, Link 0=g09
 Input=estrutura88.com
 Output=estrutura88.log
 Initial command:
 /scr/programs/g09/l1.exe "/scr/guest/Gau-32715.inp" -scrdir="/scr/guest/"
 Entering Link 1 = /scr/programs/g09/l1.exe PID=     32716.
  
 Copyright (c) 1988,1990,1992,1993,1995,1998,2003,2009,2013,
            Gaussian, Inc.  All Rights Reserved.
  
 This is part of the Gaussian(R) 09 program.  It is based on
 the Gaussian(R) 03 system (copyright 2003, Gaussian, Inc.),
 the Gaussian(R) 98 system (copyright 1998, Gaussian, Inc.),
 the Gaussian(R) 94 system (copyright 1995, Gaussian, Inc.),
 the Gaussian 92(TM) system (copyright 1992, Gaussian, Inc.),
 the Gaussian 90(TM) system (copyright 1990, Gaussian, Inc.),
 the Gaussian 88(TM) system (copyright 1988, Gaussian, Inc.),
 the Gaussian 86(TM) system (copyright 1986, Carnegie Mellon
 University), and the Gaussian 82(TM) system (copyright 1983,
 Carnegie Mellon University). Gaussian is a federally registered
 trademark of Gaussian, Inc.
  
 This software contains proprietary and confidential information,
 including trade secrets, belonging to Gaussian, Inc.
  
 This software is provided under written license and may be
 used, copied, transmitted, or stored only in accord with that
 written license.
  
 The following legend is applicable only to US Government
 contracts under FAR:
  
                    RESTRICTED RIGHTS LEGEND
  
 Use, reproduction and disclosure by the US Government is
 subject to restrictions as set forth in subparagraphs (a)
 and (c) of the Commercial Computer Software - Restricted
 Rights clause in FAR 52.227-19.
  
 Gaussian, Inc.
 340 Quinnipiac St., Bldg. 40, Wallingford CT 06492
  
  
 ---------------------------------------------------------------
 Warning -- This program may not be used in any manner that
 competes with the business of Gaussian, Inc. or will provide
 assistance to any competitor of Gaussian, Inc.  The licensee
 of this program is prohibited from giving any competitor of
 Gaussian, Inc. access to this program.  By using this program,
 the user acknowledges that Gaussian, Inc. is engaged in the
 business of creating and licensing software in the field of
 computational chemistry and represents and warrants to the
 licensee that it is not a competitor of Gaussian, Inc. and that
 it will not use this program in any manner prohibited above.
 ---------------------------------------------------------------
  

 Cite this work as:
 Gaussian 09, Revision D.01,
 M. J. Frisch, G. W. Trucks, H. B. Schlegel, G. E. Scuseria, 
 M. A. Robb, J. R. Cheeseman, G. Scalmani, V. Barone, B. Mennucci, 
 G. A. Petersson, H. Nakatsuji, M. Caricato, X. Li, H. P. Hratchian, 
 A. F. Izmaylov, J. Bloino, G. Zheng, J. L. Sonnenberg, M. Hada, 
 M. Ehara, K. Toyota, R. Fukuda, J. Hasegawa, M. Ishida, T. Nakajima, 
 Y. Honda, O. Kitao, H. Nakai, T. Vreven, J. A. Montgomery, Jr., 
 J. E. Peralta, F. Ogliaro, M. Bearpark, J. J. Heyd, E. Brothers, 
 K. N. Kudin, V. N. Staroverov, T. Keith, R. Kobayashi, J. Normand, 
 K. Raghavachari, A. Rendell, J. C. Burant, S. S. Iyengar, J. Tomasi, 
 M. Cossi, N. Rega, J. M. Millam, M. Klene, J. E. Knox, J. B. Cross, 
 V. Bakken, C. Adamo, J. Jaramillo, R. Gomperts, R. E. Stratmann, 
 O. Yazyev, A. J. Austin, R. Cammi, C. Pomelli, J. W. Ochterski, 
 R. L. Martin, K. Morokuma, V. G. Zakrzewski, G. A. Voth, 
 P. Salvador, J. J. Dannenberg, S. Dapprich, A. D. Daniels, 
 O. Farkas, J. B. Foresman, J. V. Ortiz, J. Cioslowski, 
 and D. J. Fox, Gaussian, Inc., Wallingford CT, 2013.
 
 ******************************************
 Gaussian 09:  EM64L-G09RevD.01 24-Apr-2013
                13-Jan-2020 
 ******************************************
 %mem=30Gb
 %nproc=24
 Will use up to   24 processors via shared memory.
 ----------------------------------------------------------------------
 #PBEPBE/gen scf=(maxcycle=500,conver=4) NMR=GIAO Scrf=(solvent=Dichlor
 omethane)
 ----------------------------------------------------------------------
 1/38=1/1;
 2/12=2,17=6,18=5,40=1/2;
 3/5=7,11=2,16=1,25=1,30=1,70=2201,72=9,74=1009/1,2,8,3;
 4//1;
 5/5=2,6=4,7=500,38=5,53=9/2;
 8/6=1,10=90,11=11/1;
 10/13=100,45=16/2;
 6/7=2,8=2,9=2,10=2,28=1/1;
 99/9=1/99;
 Leave Link    1 at Mon Jan 13 03:51:30 2020, MaxMem=  4026531840 cpu:         5.4
 (Enter /scr/programs/g09/l101.exe)
 ------------
 estrutura 88
 ------------
 Symbolic Z-matrix:
 Charge =  0 Multiplicity = 1
 Pt                   -0.19518   0.3368   -0.04699 
 C                     0.33364   2.44446  -0.16184 
 C                     0.41267   3.07143  -1.41591 
 C                     0.38397   3.26136   0.97839 
 C                     0.48766   4.46309  -1.52932 
 H                     0.42079   2.48026  -2.32323 
 C                     0.46772   4.65272   0.87069 
 H                     0.35311   2.82139   1.96642 
 C                     0.51392   5.26078  -0.38456 
 H                     0.53664   4.91853  -2.51088 
 H                     0.49787   5.25769   1.76848 
 H                     0.58107   6.33768  -0.4696 
 P                    -2.90985   1.09697   0.16285 
 P                    -0.54927  -2.24966  -0.11535 
 C                    -3.63882   1.84046  -1.37845 
 C                    -4.98857   2.22022  -1.45619 
 C                    -2.82479   1.99586  -2.50518 
 C                    -5.50404   2.75785  -2.6341 
 H                    -5.63954   2.09181  -0.60222 
 C                    -3.3411    2.53447  -3.6864 
 H                    -1.78743   1.69603  -2.45962 
 C                    -4.68026   2.91806  -3.75181 
 H                    -6.54521   3.04892  -2.68052 
 H                    -2.69836   2.64921  -4.54947 
 H                    -5.08261   3.33384  -4.66616 
 C                    -2.9868    2.45614   1.43024 
 C                    -2.48301   2.18487   2.71229 
 C                    -3.47139   3.74005   1.15656 
 C                    -2.49715   3.16121   3.70658 
 H                    -2.07108   1.20976   2.93953 
 C                    -3.47206   4.72359   2.14893 
 H                    -3.84159   3.98422   0.17137 
 C                    -2.99364   4.43639   3.42698 
 H                    -2.11232   2.93013   4.69145 
 H                    -3.8454    5.71289   1.91832 
 H                    -2.9976    5.19865   4.19466 
 C                    -4.31517  -0.02644   0.67766 
 C                    -4.70804  -1.03054  -0.22252 
 C                    -4.98126   0.07867   1.90488 
 C                    -5.75     -1.90092   0.09464 
 H                    -4.21228  -1.13     -1.17943 
 C                    -6.02128  -0.79971   2.224 
 H                    -4.70731   0.84649   2.61355 
 C                    -6.40971  -1.78969   1.32122 
 H                    -6.04362  -2.66187  -0.6166 
 H                    -6.52813  -0.6994    3.17518 
 H                    -7.21908  -2.46482   1.56685 
 C                     0.85317  -3.4375   -0.43598 
 C                     1.05113  -4.03658  -1.68592 
 C                     1.75122  -3.72365   0.60231 
 C                     2.12073  -4.91097  -1.88982 
 H                     0.37565  -3.83073  -2.50357 
 C                     2.81544  -4.59976   0.39816 
 H                     1.62186  -3.26884   1.57419 
 C                     3.00407  -5.19728  -0.84966 
 H                     2.26015  -5.36488  -2.86218 
 H                     3.49638  -4.81144   1.21194 
 H                     3.83152  -5.87617  -1.00791 
 C                    -1.70944  -2.65323  -1.51423 
 C                    -2.60572  -3.72927  -1.49964 
 C                    -1.63821  -1.84483  -2.65803 
 C                    -3.41143  -3.99235  -2.60792 
 H                    -2.69003  -4.36038  -0.62712 
 C                    -2.43917  -2.11254  -3.76933 
 H                    -0.95659  -1.00367  -2.68146 
 C                    -3.32787  -3.18799  -3.74637 
 H                    -4.1015   -4.8255   -2.58162 
 H                    -2.37018  -1.48061  -4.64511 
 H                    -3.95244  -3.3954   -4.60506 
 C                    -1.3021   -2.99047   1.41458 
 C                    -1.3812   -4.37576   1.62912 
 C                    -1.77171  -2.12534   2.41031 
 C                    -1.94175  -4.87845   2.80212 
 H                    -0.99047  -5.06457   0.89275 
 C                    -2.32922  -2.62767   3.58734 
 H                    -1.69096  -1.05652   2.26617 
 C                    -2.41794  -4.00544   3.78386 
 H                    -1.99773  -5.94858   2.95363 
 H                    -2.68565  -1.94481   4.34731 
 H                    -2.84693  -4.39821   4.69605 
 Sn(Iso=119)           2.4814    0.49549   0.05851 
 C                     3.32768  -0.67427   1.71799 
 C                     4.64086  -1.17056   1.67553 
 C                     2.57607  -0.89483   2.88289 
 C                     5.18181  -1.87213   2.75508 
 H                     5.25126  -1.02092   0.79224 
 C                     3.11461  -1.58826   3.97105 
 H                     1.55508  -0.53337   2.94593 
 C                     4.41953  -2.08101   3.90743 
 H                     6.19413  -2.25337   2.69748 
 H                     2.5175   -1.74625   4.86077 
 H                     4.83798  -2.62386   4.74492 
 C                     3.79197   2.25895   0.10949 
 C                     4.43438   2.59927   1.31092 
 C                     4.02498   3.06993  -1.01208 
 C                     5.27902   3.71095   1.39161 
 H                     4.28895   1.99276   2.19674 
 C                     4.87039   4.17899  -0.93895 
 H                     3.55048   2.83875  -1.95729 
 C                     5.50002   4.50343   0.2651 
 H                     5.76405   3.95182   2.32946 
 H                     5.03708   4.78772  -1.8188 
 H                     6.15596   5.36243   0.32295 
 I                     3.57443  -0.69878  -2.29557 
 
 NAtoms=    104 NQM=      104 NQMF=       0 NMMI=      0 NMMIF=      0
                NMic=       0 NMicF=      0.
                    Isotopes and Nuclear Properties:
 (Nuclear quadrupole moments (NQMom) in fm**2, nuclear magnetic moments (NMagM)
  in nuclear magnetons)

  Atom         1           2           3           4           5           6           7           8           9          10
 IAtWgt=         195          12          12          12          12           1          12           1          12           1
 AtmWgt= 194.9648000  12.0000000  12.0000000  12.0000000  12.0000000   1.0078250  12.0000000   1.0078250  12.0000000   1.0078250
 NucSpn=           1           0           0           0           0           1           0           1           0           1
 AtZEff=   0.0000000   0.0000000   0.0000000   0.0000000   0.0000000   0.0000000   0.0000000   0.0000000   0.0000000   0.0000000
 NQMom=    0.0000000   0.0000000   0.0000000   0.0000000   0.0000000   0.0000000   0.0000000   0.0000000   0.0000000   0.0000000
 NMagM=    0.6095000   0.0000000   0.0000000   0.0000000   0.0000000   2.7928460   0.0000000   2.7928460   0.0000000   2.7928460
 AtZNuc=  78.0000000   6.0000000   6.0000000   6.0000000   6.0000000   1.0000000   6.0000000   1.0000000   6.0000000   1.0000000

  Atom        11          12          13          14          15          16          17          18          19          20
 IAtWgt=           1           1          31          31          12          12          12          12           1          12
 AtmWgt=   1.0078250   1.0078250  30.9737634  30.9737634  12.0000000  12.0000000  12.0000000  12.0000000   1.0078250  12.0000000
 NucSpn=           1           1           1           1           0           0           0           0           1           0
 AtZEff=   0.0000000   0.0000000   0.0000000   0.0000000   0.0000000   0.0000000   0.0000000   0.0000000   0.0000000   0.0000000
 NQMom=    0.0000000   0.0000000   0.0000000   0.0000000   0.0000000   0.0000000   0.0000000   0.0000000   0.0000000   0.0000000
 NMagM=    2.7928460   2.7928460   1.1316000   1.1316000   0.0000000   0.0000000   0.0000000   0.0000000   2.7928460   0.0000000
 AtZNuc=   1.0000000   1.0000000  15.0000000  15.0000000   6.0000000   6.0000000   6.0000000   6.0000000   1.0000000   6.0000000

  Atom        21          22          23          24          25          26          27          28          29          30
 IAtWgt=           1          12           1           1           1          12          12          12          12           1
 AtmWgt=   1.0078250  12.0000000   1.0078250   1.0078250   1.0078250  12.0000000  12.0000000  12.0000000  12.0000000   1.0078250
 NucSpn=           1           0           1           1           1           0           0           0           0           1
 AtZEff=   0.0000000   0.0000000   0.0000000   0.0000000   0.0000000   0.0000000   0.0000000   0.0000000   0.0000000   0.0000000
 NQMom=    0.0000000   0.0000000   0.0000000   0.0000000   0.0000000   0.0000000   0.0000000   0.0000000   0.0000000   0.0000000
 NMagM=    2.7928460   0.0000000   2.7928460   2.7928460   2.7928460   0.0000000   0.0000000   0.0000000   0.0000000   2.7928460
 AtZNuc=   1.0000000   6.0000000   1.0000000   1.0000000   1.0000000   6.0000000   6.0000000   6.0000000   6.0000000   1.0000000

  Atom        31          32          33          34          35          36          37          38          39          40
 IAtWgt=          12           1          12           1           1           1          12          12          12          12
 AtmWgt=  12.0000000   1.0078250  12.0000000   1.0078250   1.0078250   1.0078250  12.0000000  12.0000000  12.0000000  12.0000000
 NucSpn=           0           1           0           1           1           1           0           0           0           0
 AtZEff=   0.0000000   0.0000000   0.0000000   0.0000000   0.0000000   0.0000000   0.0000000   0.0000000   0.0000000   0.0000000
 NQMom=    0.0000000   0.0000000   0.0000000   0.0000000   0.0000000   0.0000000   0.0000000   0.0000000   0.0000000   0.0000000
 NMagM=    0.0000000   2.7928460   0.0000000   2.7928460   2.7928460   2.7928460   0.0000000   0.0000000   0.0000000   0.0000000
 AtZNuc=   6.0000000   1.0000000   6.0000000   1.0000000   1.0000000   1.0000000   6.0000000   6.0000000   6.0000000   6.0000000

  Atom        41          42          43          44          45          46          47          48          49          50
 IAtWgt=           1          12           1          12           1           1           1          12          12          12
 AtmWgt=   1.0078250  12.0000000   1.0078250  12.0000000   1.0078250   1.0078250   1.0078250  12.0000000  12.0000000  12.0000000
 NucSpn=           1           0           1           0           1           1           1           0           0           0
 AtZEff=   0.0000000   0.0000000   0.0000000   0.0000000   0.0000000   0.0000000   0.0000000   0.0000000   0.0000000   0.0000000
 NQMom=    0.0000000   0.0000000   0.0000000   0.0000000   0.0000000   0.0000000   0.0000000   0.0000000   0.0000000   0.0000000
 NMagM=    2.7928460   0.0000000   2.7928460   0.0000000   2.7928460   2.7928460   2.7928460   0.0000000   0.0000000   0.0000000
 AtZNuc=   1.0000000   6.0000000   1.0000000   6.0000000   1.0000000   1.0000000   1.0000000   6.0000000   6.0000000   6.0000000

  Atom        51          52          53          54          55          56          57          58          59          60
 IAtWgt=          12           1          12           1          12           1           1           1          12          12
 AtmWgt=  12.0000000   1.0078250  12.0000000   1.0078250  12.0000000   1.0078250   1.0078250   1.0078250  12.0000000  12.0000000
 NucSpn=           0           1           0           1           0           1           1           1           0           0
 AtZEff=   0.0000000   0.0000000   0.0000000   0.0000000   0.0000000   0.0000000   0.0000000   0.0000000   0.0000000   0.0000000
 NQMom=    0.0000000   0.0000000   0.0000000   0.0000000   0.0000000   0.0000000   0.0000000   0.0000000   0.0000000   0.0000000
 NMagM=    0.0000000   2.7928460   0.0000000   2.7928460   0.0000000   2.7928460   2.7928460   2.7928460   0.0000000   0.0000000
 AtZNuc=   6.0000000   1.0000000   6.0000000   1.0000000   6.0000000   1.0000000   1.0000000   1.0000000   6.0000000   6.0000000

  Atom        61          62          63          64          65          66          67          68          69          70
 IAtWgt=          12          12           1          12           1          12           1           1           1          12
 AtmWgt=  12.0000000  12.0000000   1.0078250  12.0000000   1.0078250  12.0000000   1.0078250   1.0078250   1.0078250  12.0000000
 NucSpn=           0           0           1           0           1           0           1           1           1           0
 AtZEff=   0.0000000   0.0000000   0.0000000   0.0000000   0.0000000   0.0000000   0.0000000   0.0000000   0.0000000   0.0000000
 NQMom=    0.0000000   0.0000000   0.0000000   0.0000000   0.0000000   0.0000000   0.0000000   0.0000000   0.0000000   0.0000000
 NMagM=    0.0000000   0.0000000   2.7928460   0.0000000   2.7928460   0.0000000   2.7928460   2.7928460   2.7928460   0.0000000
 AtZNuc=   6.0000000   6.0000000   1.0000000   6.0000000   1.0000000   6.0000000   1.0000000   1.0000000   1.0000000   6.0000000

  Atom        71          72          73          74          75          76          77          78          79          80
 IAtWgt=          12          12          12           1          12           1          12           1           1           1
 AtmWgt=  12.0000000  12.0000000  12.0000000   1.0078250  12.0000000   1.0078250  12.0000000   1.0078250   1.0078250   1.0078250
 NucSpn=           0           0           0           1           0           1           0           1           1           1
 AtZEff=   0.0000000   0.0000000   0.0000000   0.0000000   0.0000000   0.0000000   0.0000000   0.0000000   0.0000000   0.0000000
 NQMom=    0.0000000   0.0000000   0.0000000   0.0000000   0.0000000   0.0000000   0.0000000   0.0000000   0.0000000   0.0000000
 NMagM=    0.0000000   0.0000000   0.0000000   2.7928460   0.0000000   2.7928460   0.0000000   2.7928460   2.7928460   2.7928460
 AtZNuc=   6.0000000   6.0000000   6.0000000   1.0000000   6.0000000   1.0000000   6.0000000   1.0000000   1.0000000   1.0000000

  Atom        81          82          83          84          85          86          87          88          89          90
 IAtWgt=         119          12          12          12          12           1          12           1          12           1
 AtmWgt= 118.9034000  12.0000000  12.0000000  12.0000000  12.0000000   1.0078250  12.0000000   1.0078250  12.0000000   1.0078250
 NucSpn=           1           0           0           0           0           1           0           1           0           1
 AtZEff=   0.0000000   0.0000000   0.0000000   0.0000000   0.0000000   0.0000000   0.0000000   0.0000000   0.0000000   0.0000000
 NQMom=  -12.8000000   0.0000000   0.0000000   0.0000000   0.0000000   0.0000000   0.0000000   0.0000000   0.0000000   0.0000000
 NMagM=   -1.0472900   0.0000000   0.0000000   0.0000000   0.0000000   2.7928460   0.0000000   2.7928460   0.0000000   2.7928460
 AtZNuc=  50.0000000   6.0000000   6.0000000   6.0000000   6.0000000   1.0000000   6.0000000   1.0000000   6.0000000   1.0000000

  Atom        91          92          93          94          95          96          97          98          99         100
 IAtWgt=           1           1          12          12          12          12           1          12           1          12
 AtmWgt=   1.0078250   1.0078250  12.0000000  12.0000000  12.0000000  12.0000000   1.0078250  12.0000000   1.0078250  12.0000000
 NucSpn=           1           1           0           0           0           0           1           0           1           0
 AtZEff=   0.0000000   0.0000000   0.0000000   0.0000000   0.0000000   0.0000000   0.0000000   0.0000000   0.0000000   0.0000000
 NQMom=    0.0000000   0.0000000   0.0000000   0.0000000   0.0000000   0.0000000   0.0000000   0.0000000   0.0000000   0.0000000
 NMagM=    2.7928460   2.7928460   0.0000000   0.0000000   0.0000000   0.0000000   2.7928460   0.0000000   2.7928460   0.0000000
 AtZNuc=   1.0000000   1.0000000   6.0000000   6.0000000   6.0000000   6.0000000   1.0000000   6.0000000   1.0000000   6.0000000

  Atom       101         102         103         104
 IAtWgt=           1           1           1         127
 AtmWgt=   1.0078250   1.0078250   1.0078250 126.9004000
 NucSpn=           1           1           1           5
 AtZEff=   0.0000000   0.0000000   0.0000000   0.0000000
 NQMom=    0.0000000   0.0000000   0.0000000 -71.0000000
 NMagM=    2.7928460   2.7928460   2.7928460   2.8132800
 AtZNuc=   1.0000000   1.0000000   1.0000000  53.0000000
 Leave Link  101 at Mon Jan 13 03:51:31 2020, MaxMem=  4026531840 cpu:         7.2
 (Enter /scr/programs/g09/l202.exe)
 Stoichiometry    C54H45IP2PtSn
 Framework group  C1[X(C54H45IP2PtSn)]
 Deg. of freedom   306
 Full point group                 C1      NOp   1
 Largest Abelian subgroup         C1      NOp   1
 Largest concise Abelian subgroup C1      NOp   1
                         Standard orientation:                         
 ---------------------------------------------------------------------
 Center     Atomic      Atomic             Coordinates (Angstroms)
 Number     Number       Type             X           Y           Z
 ---------------------------------------------------------------------
      1         78           0       -0.195184    0.336795   -0.046991
      2          6           0        0.333639    2.444462   -0.161839
      3          6           0        0.412674    3.071430   -1.415913
      4          6           0        0.383972    3.261358    0.978391
      5          6           0        0.487659    4.463090   -1.529319
      6          1           0        0.420786    2.480262   -2.323231
      7          6           0        0.467724    4.652723    0.870685
      8          1           0        0.353109    2.821390    1.966416
      9          6           0        0.513921    5.260777   -0.384555
     10          1           0        0.536644    4.918534   -2.510884
     11          1           0        0.497873    5.257691    1.768478
     12          1           0        0.581068    6.337680   -0.469600
     13         15           0       -2.909850    1.096966    0.162852
     14         15           0       -0.549273   -2.249663   -0.115354
     15          6           0       -3.638815    1.840456   -1.378450
     16          6           0       -4.988567    2.220218   -1.456185
     17          6           0       -2.824793    1.995858   -2.505184
     18          6           0       -5.504039    2.757845   -2.634097
     19          1           0       -5.639540    2.091815   -0.602216
     20          6           0       -3.341095    2.534470   -3.686401
     21          1           0       -1.787426    1.696029   -2.459625
     22          6           0       -4.680256    2.918063   -3.751809
     23          1           0       -6.545212    3.048919   -2.680523
     24          1           0       -2.698363    2.649210   -4.549466
     25          1           0       -5.082607    3.333839   -4.666158
     26          6           0       -2.986798    2.456144    1.430235
     27          6           0       -2.483009    2.184871    2.712287
     28          6           0       -3.471385    3.740053    1.156560
     29          6           0       -2.497153    3.161207    3.706575
     30          1           0       -2.071078    1.209757    2.939533
     31          6           0       -3.472055    4.723588    2.148931
     32          1           0       -3.841591    3.984219    0.171365
     33          6           0       -2.993637    4.436394    3.426980
     34          1           0       -2.112322    2.930125    4.691451
     35          1           0       -3.845398    5.712892    1.918315
     36          1           0       -2.997601    5.198649    4.194664
     37          6           0       -4.315168   -0.026437    0.677661
     38          6           0       -4.708038   -1.030538   -0.222516
     39          6           0       -4.981259    0.078673    1.904877
     40          6           0       -5.749999   -1.900920    0.094639
     41          1           0       -4.212283   -1.130000   -1.179433
     42          6           0       -6.021277   -0.799711    2.223998
     43          1           0       -4.707307    0.846492    2.613551
     44          6           0       -6.409711   -1.789692    1.321218
     45          1           0       -6.043617   -2.661869   -0.616602
     46          1           0       -6.528130   -0.699399    3.175178
     47          1           0       -7.219084   -2.464815    1.566848
     48          6           0        0.853174   -3.437504   -0.435977
     49          6           0        1.051135   -4.036579   -1.685921
     50          6           0        1.751217   -3.723645    0.602310
     51          6           0        2.120731   -4.910974   -1.889824
     52          1           0        0.375651   -3.830733   -2.503568
     53          6           0        2.815436   -4.599764    0.398158
     54          1           0        1.621856   -3.268840    1.574188
     55          6           0        3.004075   -5.197281   -0.849655
     56          1           0        2.260147   -5.364880   -2.862179
     57          1           0        3.496379   -4.811439    1.211939
     58          1           0        3.831516   -5.876171   -1.007905
     59          6           0       -1.709440   -2.653231   -1.514228
     60          6           0       -2.605717   -3.729272   -1.499642
     61          6           0       -1.638210   -1.844833   -2.658028
     62          6           0       -3.411430   -3.992353   -2.607919
     63          1           0       -2.690032   -4.360375   -0.627117
     64          6           0       -2.439172   -2.112539   -3.769330
     65          1           0       -0.956594   -1.003669   -2.681460
     66          6           0       -3.327871   -3.187986   -3.746371
     67          1           0       -4.101503   -4.825501   -2.581618
     68          1           0       -2.370183   -1.480611   -4.645111
     69          1           0       -3.952435   -3.395395   -4.605057
     70          6           0       -1.302100   -2.990468    1.414579
     71          6           0       -1.381196   -4.375764    1.629120
     72          6           0       -1.771709   -2.125344    2.410314
     73          6           0       -1.941753   -4.878454    2.802121
     74          1           0       -0.990469   -5.064568    0.892745
     75          6           0       -2.329224   -2.627675    3.587337
     76          1           0       -1.690962   -1.056522    2.266171
     77          6           0       -2.417939   -4.005442    3.783859
     78          1           0       -1.997732   -5.948581    2.953626
     79          1           0       -2.685647   -1.944810    4.347308
     80          1           0       -2.846932   -4.398212    4.696046
     81         50           0        2.481401    0.495489    0.058509
     82          6           0        3.327677   -0.674268    1.717989
     83          6           0        4.640855   -1.170560    1.675531
     84          6           0        2.576072   -0.894828    2.882893
     85          6           0        5.181812   -1.872131    2.755081
     86          1           0        5.251261   -1.020922    0.792236
     87          6           0        3.114607   -1.588264    3.971054
     88          1           0        1.555077   -0.533370    2.945929
     89          6           0        4.419527   -2.081014    3.907425
     90          1           0        6.194129   -2.253366    2.697479
     91          1           0        2.517500   -1.746248    4.860773
     92          1           0        4.837982   -2.623859    4.744917
     93          6           0        3.791966    2.258949    0.109493
     94          6           0        4.434382    2.599271    1.310923
     95          6           0        4.024975    3.069931   -1.012075
     96          6           0        5.279023    3.710953    1.391605
     97          1           0        4.288945    1.992757    2.196743
     98          6           0        4.870389    4.178991   -0.938950
     99          1           0        3.550475    2.838746   -1.957286
    100          6           0        5.500019    4.503428    0.265099
    101          1           0        5.764051    3.951823    2.329457
    102          1           0        5.037081    4.787723   -1.818799
    103          1           0        6.155963    5.362426    0.322947
    104         53           0        3.574426   -0.698777   -2.295575
 ---------------------------------------------------------------------
 Rotational constants (GHZ):      0.0433531      0.0329515      0.0270526
 Leave Link  202 at Mon Jan 13 03:51:31 2020, MaxMem=  4026531840 cpu:         2.7
 (Enter /scr/programs/g09/l301.exe)
 General basis read from cards:  (5D, 7F)
 Centers:       6      8     10     11     12     19     21     23     24     25
 Centers:      30     32     34     35     36     41     43     45     46     47
 Centers:      52     54     56     57     58     63     65     67     68     69
 Centers:      74     76     78     79     80     86     88     90     91     92
 Centers:      97     99    101    102    103
 S 5 1.00
     Exponent=  2.8295215633D+02 Coefficients=  4.3000000000D-04
     Exponent=  8.7062201949D+01 Coefficients=  5.1000000000D-04
     Exponent=  2.6788369830D+01 Coefficients=  6.1600000000D-03
     Exponent=  8.2425753324D+00 Coefficients=  1.3030000000D-02
     Exponent=  2.5361770254D+00 Coefficients=  9.9490000000D-02
 S 1 1.00
     Exponent=  7.8036216165D-01 Coefficients=  1.0000000000D+00
 S 1 1.00
     Exponent=  2.4011143435D-01 Coefficients=  1.0000000000D+00
 P 1 1.00
     Exponent=  8.8150000000D-01 Coefficients=  1.0000000000D+00
 P 1 1.00
     Exponent=  1.7989200000D-01 Coefficients=  1.0000000000D+00
 ****
 Centers:       2      3      4      5      7      9     15     16     17     18
 Centers:      20     22     26     27     28     29     31     33     37     38
 Centers:      39     40     42     44     48     49     50     51     53     55
 Centers:      59     60     61     62     64     66     70     71     72     73
 Centers:      75     77     82     83     84     85     87     89     93     94
 Centers:      95     96     98    100
 S 6 1.00
     Exponent=  8.8461235339D+03 Coefficients=  5.3000000000D-04
     Exponent=  2.9487078446D+03 Coefficients=  7.7000000000D-04
     Exponent=  9.8290261488D+02 Coefficients=  4.0500000000D-03
     Exponent=  3.2763420496D+02 Coefficients=  1.4030000000D-02
     Exponent=  1.0921140165D+02 Coefficients=  5.3450000000D-02
     Exponent=  3.6403800551D+01 Coefficients=  1.7027000000D-01
 S 1 1.00
     Exponent=  1.2134600184D+01 Coefficients=  1.0000000000D+00
 S 1 1.00
     Exponent=  4.0448667279D+00 Coefficients=  1.0000000000D+00
 S 1 1.00
     Exponent=  1.3482889093D+00 Coefficients=  1.0000000000D+00
 S 1 1.00
     Exponent=  4.4942963643D-01 Coefficients=  1.0000000000D+00
 S 1 1.00
     Exponent=  1.4980987881D-01 Coefficients=  1.0000000000D+00
 P 4 1.00
     Exponent=  3.7294093393D+01 Coefficients=  3.9600000000D-03
     Exponent=  1.1475105659D+01 Coefficients=  1.8890000000D-02
     Exponent=  3.5308017414D+00 Coefficients=  9.4610000000D-02
     Exponent=  1.0864005358D+00 Coefficients=  3.1889000000D-01
 P 1 1.00
     Exponent=  3.3427708794D-01 Coefficients=  1.0000000000D+00
 P 1 1.00
     Exponent=  1.0285448860D-01 Coefficients=  1.0000000000D+00
 D 1 1.00
     Exponent=  4.7750000000D-01 Coefficients=  1.0000000000D+00
 D 1 1.00
     Exponent=  1.1998000000D-01 Coefficients=  1.0000000000D+00
 ****
 Centers:      13     14
 S 7 1.00
     Exponent=  5.9538004301D+04 Coefficients=  9.5000000000D-04
     Exponent=  2.1650183382D+04 Coefficients=  6.1000000000D-04
     Exponent=  7.8727939572D+03 Coefficients=  3.7500000000D-03
     Exponent=  2.8628341663D+03 Coefficients=  9.6300000000D-03
     Exponent=  1.0410306059D+03 Coefficients=  3.2430000000D-02
     Exponent=  3.7855658397D+02 Coefficients=  9.9500000000D-02
     Exponent=  1.3765693962D+02 Coefficients=  2.6570000000D-01
 S 1 1.00
     Exponent=  5.0057068954D+01 Coefficients=  1.0000000000D+00
 S 1 1.00
     Exponent=  1.8202570529D+01 Coefficients=  1.0000000000D+00
 S 1 1.00
     Exponent=  6.6191165560D+00 Coefficients=  1.0000000000D+00
 S 1 1.00
     Exponent=  2.4069514749D+00 Coefficients=  1.0000000000D+00
 S 1 1.00
     Exponent=  8.7525508178D-01 Coefficients=  1.0000000000D+00
 S 1 1.00
     Exponent=  3.1827457519D-01 Coefficients=  1.0000000000D+00
 S 1 1.00
     Exponent=  1.1573620916D-01 Coefficients=  1.0000000000D+00
 S 1 1.00
     Exponent=  4.2085894240D-02 Coefficients=  1.0000000000D+00
 P 5 1.00
     Exponent=  4.8799672315D+02 Coefficients=  2.1600000000D-03
     Exponent=  1.6266557438D+02 Coefficients=  9.7900000000D-03
     Exponent=  5.4221858128D+01 Coefficients=  5.4850000000D-02
     Exponent=  1.8073952709D+01 Coefficients=  2.1770000000D-01
     Exponent=  6.0246509031D+00 Coefficients=  4.8978000000D-01
 P 1 1.00
     Exponent=  2.0082169677D+00 Coefficients=  1.0000000000D+00
 P 1 1.00
     Exponent=  6.6940565590D-01 Coefficients=  1.0000000000D+00
 P 1 1.00
     Exponent=  2.2313521863D-01 Coefficients=  1.0000000000D+00
 P 1 1.00
     Exponent=  7.4378406211D-02 Coefficients=  1.0000000000D+00
 P 1 1.00
     Exponent=  2.4792802070D-02 Coefficients=  1.0000000000D+00
 D 1 1.00
     Exponent=  3.5395000000D-01 Coefficients=  1.0000000000D+00
 D 1 1.00
     Exponent=  8.9098000000D-02 Coefficients=  1.0000000000D+00
 ****
 Centers:      81
 S 8 1.00
     Exponent=  7.5448214551D+05 Coefficients=  4.4300000000D-03
     Exponent=  3.3532539800D+05 Coefficients=  1.9800000000D-03
     Exponent=  1.4903351022D+05 Coefficients=  9.0500000000D-03
     Exponent=  6.6237115655D+04 Coefficients=  4.8700000000D-03
     Exponent=  2.9438718069D+04 Coefficients=  2.0770000000D-02
     Exponent=  1.3083874697D+04 Coefficients=  3.2900000000D-02
     Exponent=  5.8150554210D+03 Coefficients=  7.7010000000D-02
     Exponent=  2.5844690760D+03 Coefficients=  1.5160000000D-01
 S 1 1.00
     Exponent=  1.1486529227D+03 Coefficients=  1.0000000000D+00
 S 1 1.00
     Exponent=  5.1051241008D+02 Coefficients=  1.0000000000D+00
 S 1 1.00
     Exponent=  2.2689440448D+02 Coefficients=  1.0000000000D+00
 S 1 1.00
     Exponent=  1.0084195755D+02 Coefficients=  1.0000000000D+00
 S 1 1.00
     Exponent=  4.4818647798D+01 Coefficients=  1.0000000000D+00
 S 1 1.00
     Exponent=  1.9919399021D+01 Coefficients=  1.0000000000D+00
 S 1 1.00
     Exponent=  8.8530662317D+00 Coefficients=  1.0000000000D+00
 S 1 1.00
     Exponent=  3.9346961030D+00 Coefficients=  1.0000000000D+00
 S 1 1.00
     Exponent=  1.7487538235D+00 Coefficients=  1.0000000000D+00
 S 1 1.00
     Exponent=  7.7722392158D-01 Coefficients=  1.0000000000D+00
 S 1 1.00
     Exponent=  3.4543285403D-01 Coefficients=  1.0000000000D+00
 S 1 1.00
     Exponent=  1.5352571290D-01 Coefficients=  1.0000000000D+00
 S 1 1.00
     Exponent=  6.8233650180D-02 Coefficients=  1.0000000000D+00
 S 1 1.00
     Exponent=  1.3478251887D-02 Coefficients=  1.0000000000D+00
 P 5 1.00
     Exponent=  1.0090658304D+04 Coefficients=  2.7500000000D-03
     Exponent=  4.0362633217D+03 Coefficients=  4.1800000000D-03
     Exponent=  1.6145053287D+03 Coefficients=  2.0890000000D-02
     Exponent=  6.4580213147D+02 Coefficients=  7.1370000000D-02
     Exponent=  2.5832085259D+02 Coefficients=  2.2613000000D-01
 P 1 1.00
     Exponent=  1.0332834104D+02 Coefficients=  1.0000000000D+00
 P 1 1.00
     Exponent=  4.1331336414D+01 Coefficients=  1.0000000000D+00
 P 1 1.00
     Exponent=  1.6532534566D+01 Coefficients=  1.0000000000D+00
 P 1 1.00
     Exponent=  6.6130138263D+00 Coefficients=  1.0000000000D+00
 P 1 1.00
     Exponent=  2.6452055305D+00 Coefficients=  1.0000000000D+00
 P 1 1.00
     Exponent=  1.0580822122D+00 Coefficients=  1.0000000000D+00
 P 1 1.00
     Exponent=  4.2323288488D-01 Coefficients=  1.0000000000D+00
 P 1 1.00
     Exponent=  1.6929315395D-01 Coefficients=  1.0000000000D+00
 P 1 1.00
     Exponent=  6.7717261581D-02 Coefficients=  1.0000000000D+00
 P 1 1.00
     Exponent=  2.7086904632D-02 Coefficients=  1.0000000000D+00
 P 1 1.00
     Exponent=  1.0834761853D-02 Coefficients=  1.0000000000D+00
 D 4 1.00
     Exponent=  5.5430250651D+02 Coefficients=  4.3700000000D-03
     Exponent=  2.0156454782D+02 Coefficients=  2.5110000000D-02
     Exponent=  7.3296199207D+01 Coefficients=  1.3316000000D-01
     Exponent=  2.6653163348D+01 Coefficients=  3.8900000000D-01
 D 1 1.00
     Exponent=  9.6920593993D+00 Coefficients=  1.0000000000D+00
 D 1 1.00
     Exponent=  3.5243852361D+00 Coefficients=  1.0000000000D+00
 D 1 1.00
     Exponent=  1.2815946313D+00 Coefficients=  1.0000000000D+00
 D 1 1.00
     Exponent=  4.6603441139D-01 Coefficients=  1.0000000000D+00
 D 1 1.00
     Exponent=  1.6946705869D-01 Coefficients=  1.0000000000D+00
 F 1 1.00
     Exponent=  1.3140000000D+00 Coefficients=  1.0000000000D+00
 F 1 1.00
     Exponent=  1.9993000000D-01 Coefficients=  1.0000000000D+00
 ****
 Centers:     104
 S 8 1.00
     Exponent=  8.5936360741D+05 Coefficients=  4.8500000000D-03
     Exponent=  3.8193938107D+05 Coefficients=  2.2000000000D-03
     Exponent=  1.6975083603D+05 Coefficients=  9.8300000000D-03
     Exponent=  7.5444816014D+04 Coefficients=  5.0600000000D-03
     Exponent=  3.3531029340D+04 Coefficients=  2.2020000000D-02
     Exponent=  1.4902679707D+04 Coefficients=  3.3930000000D-02
     Exponent=  6.6234132029D+03 Coefficients=  7.8750000000D-02
     Exponent=  2.9437392013D+03 Coefficients=  1.5218000000D-01
 S 1 1.00
     Exponent=  1.3083285339D+03 Coefficients=  1.0000000000D+00
 S 1 1.00
     Exponent=  5.8147934840D+02 Coefficients=  1.0000000000D+00
 S 1 1.00
     Exponent=  2.5843526596D+02 Coefficients=  1.0000000000D+00
 S 1 1.00
     Exponent=  1.1486011820D+02 Coefficients=  1.0000000000D+00
 S 1 1.00
     Exponent=  5.1048941424D+01 Coefficients=  1.0000000000D+00
 S 1 1.00
     Exponent=  2.2688418411D+01 Coefficients=  1.0000000000D+00
 S 1 1.00
     Exponent=  1.0083741516D+01 Coefficients=  1.0000000000D+00
 S 1 1.00
     Exponent=  4.4816628959D+00 Coefficients=  1.0000000000D+00
 S 1 1.00
     Exponent=  1.9918501760D+00 Coefficients=  1.0000000000D+00
 S 1 1.00
     Exponent=  8.8526674487D-01 Coefficients=  1.0000000000D+00
 S 1 1.00
     Exponent=  3.9345188661D-01 Coefficients=  1.0000000000D+00
 S 1 1.00
     Exponent=  1.7486750516D-01 Coefficients=  1.0000000000D+00
 S 1 1.00
     Exponent=  7.7718891182D-02 Coefficients=  1.0000000000D+00
 S 1 1.00
     Exponent=  3.4541729414D-02 Coefficients=  1.0000000000D+00
 P 5 1.00
     Exponent=  1.1648985008D+04 Coefficients=  2.9200000000D-03
     Exponent=  4.6595940030D+03 Coefficients=  4.2200000000D-03
     Exponent=  1.8638376012D+03 Coefficients=  2.1070000000D-02
     Exponent=  7.4553504048D+02 Coefficients=  7.0700000000D-02
     Exponent=  2.9821401619D+02 Coefficients=  2.2364000000D-01
 P 1 1.00
     Exponent=  1.1928560648D+02 Coefficients=  1.0000000000D+00
 P 1 1.00
     Exponent=  4.7714242591D+01 Coefficients=  1.0000000000D+00
 P 1 1.00
     Exponent=  1.9085697036D+01 Coefficients=  1.0000000000D+00
 P 1 1.00
     Exponent=  7.6342788145D+00 Coefficients=  1.0000000000D+00
 P 1 1.00
     Exponent=  3.0537115258D+00 Coefficients=  1.0000000000D+00
 P 1 1.00
     Exponent=  1.2214846103D+00 Coefficients=  1.0000000000D+00
 P 1 1.00
     Exponent=  4.8859384413D-01 Coefficients=  1.0000000000D+00
 P 1 1.00
     Exponent=  1.9543753765D-01 Coefficients=  1.0000000000D+00
 P 1 1.00
     Exponent=  7.8175015061D-02 Coefficients=  1.0000000000D+00
 P 1 1.00
     Exponent=  3.1270006024D-02 Coefficients=  1.0000000000D+00
 P 1 1.00
     Exponent=  1.2508002410D-02 Coefficients=  1.0000000000D+00
 D 4 1.00
     Exponent=  6.5951352791D+02 Coefficients=  4.1800000000D-03
     Exponent=  2.3982310106D+02 Coefficients=  2.4100000000D-02
     Exponent=  8.7208400385D+01 Coefficients=  1.2959000000D-01
     Exponent=  3.1712145595D+01 Coefficients=  3.8986000000D-01
 D 1 1.00
     Exponent=  1.1531689307D+01 Coefficients=  1.0000000000D+00
 D 1 1.00
     Exponent=  4.1933415662D+00 Coefficients=  1.0000000000D+00
 D 1 1.00
     Exponent=  1.5248514786D+00 Coefficients=  1.0000000000D+00
 D 1 1.00
     Exponent=  5.5449144677D-01 Coefficients=  1.0000000000D+00
 D 1 1.00
     Exponent=  2.0163325337D-01 Coefficients=  1.0000000000D+00
 F 1 1.00
     Exponent=  1.3997000000D+00 Coefficients=  1.0000000000D+00
 F 1 1.00
     Exponent=  3.3030000000D-01 Coefficients=  1.0000000000D+00
 ****
 Centers:       1
 S 9 1.00
     Exponent=  2.1644816090D+06 Coefficients=  1.2320000000D-02
     Exponent=  1.0822408045D+06 Coefficients=  1.2970000000D-02
     Exponent=  5.4112040224D+05 Coefficients=  2.6370000000D-02
     Exponent=  2.7056020112D+05 Coefficients=  9.0400000000D-03
     Exponent=  1.3528010056D+05 Coefficients=  3.4980000000D-02
     Exponent=  6.7640050280D+04 Coefficients=  1.2220000000D-02
     Exponent=  3.3820025140D+04 Coefficients=  6.0520000000D-02
     Exponent=  1.6910012570D+04 Coefficients=  6.4930000000D-02
     Exponent=  8.4550062850D+03 Coefficients=  1.3819000000D-01
 S 1 1.00
     Exponent=  4.2275031425D+03 Coefficients=  1.0000000000D+00
 S 1 1.00
     Exponent=  2.1137515713D+03 Coefficients=  1.0000000000D+00
 S 1 1.00
     Exponent=  1.0568757856D+03 Coefficients=  1.0000000000D+00
 S 1 1.00
     Exponent=  5.2843789281D+02 Coefficients=  1.0000000000D+00
 S 1 1.00
     Exponent=  2.6421894641D+02 Coefficients=  1.0000000000D+00
 S 1 1.00
     Exponent=  1.3210947320D+02 Coefficients=  1.0000000000D+00
 S 1 1.00
     Exponent=  6.6054736602D+01 Coefficients=  1.0000000000D+00
 S 1 1.00
     Exponent=  3.3027368301D+01 Coefficients=  1.0000000000D+00
 S 1 1.00
     Exponent=  1.6513684150D+01 Coefficients=  1.0000000000D+00
 S 1 1.00
     Exponent=  8.2568420752D+00 Coefficients=  1.0000000000D+00
 S 1 1.00
     Exponent=  4.1284210376D+00 Coefficients=  1.0000000000D+00
 S 1 1.00
     Exponent=  2.0642105188D+00 Coefficients=  1.0000000000D+00
 S 1 1.00
     Exponent=  1.0321052594D+00 Coefficients=  1.0000000000D+00
 S 1 1.00
     Exponent=  5.1605262970D-01 Coefficients=  1.0000000000D+00
 S 1 1.00
     Exponent=  2.5802631485D-01 Coefficients=  1.0000000000D+00
 S 1 1.00
     Exponent=  1.2901315743D-01 Coefficients=  1.0000000000D+00
 S 1 1.00
     Exponent=  6.4506578713D-02 Coefficients=  1.0000000000D+00
 P 7 1.00
     Exponent=  3.2357915258D+04 Coefficients=  5.0200000000D-03
     Exponent=  1.4381295670D+04 Coefficients=  2.0200000000D-03
     Exponent=  6.3916869645D+03 Coefficients=  1.8070000000D-02
     Exponent=  2.8407497620D+03 Coefficients=  3.6620000000D-02
     Exponent=  1.2625554498D+03 Coefficients=  1.1172000000D-01
     Exponent=  5.6113575545D+02 Coefficients=  2.5586000000D-01
     Exponent=  2.4939366909D+02 Coefficients=  4.2608000000D-01
 P 1 1.00
     Exponent=  1.1084163071D+02 Coefficients=  1.0000000000D+00
 P 1 1.00
     Exponent=  4.9262946981D+01 Coefficients=  1.0000000000D+00
 P 1 1.00
     Exponent=  2.1894643103D+01 Coefficients=  1.0000000000D+00
 P 1 1.00
     Exponent=  9.7309524900D+00 Coefficients=  1.0000000000D+00
 P 1 1.00
     Exponent=  4.3248677733D+00 Coefficients=  1.0000000000D+00
 P 1 1.00
     Exponent=  1.9221634548D+00 Coefficients=  1.0000000000D+00
 P 1 1.00
     Exponent=  8.5429486881D-01 Coefficients=  1.0000000000D+00
 P 1 1.00
     Exponent=  3.7968660836D-01 Coefficients=  1.0000000000D+00
 P 1 1.00
     Exponent=  1.6874960372D-01 Coefficients=  1.0000000000D+00
 P 1 1.00
     Exponent=  7.4999823874D-02 Coefficients=  1.0000000000D+00
 P 1 1.00
     Exponent=  3.3333255055D-02 Coefficients=  1.0000000000D+00
 D 5 1.00
     Exponent=  1.9119003508D+03 Coefficients=  4.3300000000D-03
     Exponent=  7.6476014031D+02 Coefficients=  1.7780000000D-02
     Exponent=  3.0590405613D+02 Coefficients=  8.9710000000D-02
     Exponent=  1.2236162245D+02 Coefficients=  3.1123000000D-01
     Exponent=  4.8944648980D+01 Coefficients=  5.3206000000D-01
 D 1 1.00
     Exponent=  1.9577859592D+01 Coefficients=  1.0000000000D+00
 D 1 1.00
     Exponent=  7.8311438368D+00 Coefficients=  1.0000000000D+00
 D 1 1.00
     Exponent=  3.1324575347D+00 Coefficients=  1.0000000000D+00
 D 1 1.00
     Exponent=  1.2529830139D+00 Coefficients=  1.0000000000D+00
 D 1 1.00
     Exponent=  5.0119320556D-01 Coefficients=  1.0000000000D+00
 D 1 1.00
     Exponent=  2.0047728222D-01 Coefficients=  1.0000000000D+00
 D 1 1.00
     Exponent=  8.0190912889D-02 Coefficients=  1.0000000000D+00
 D 1 1.00
     Exponent=  3.2076365156D-02 Coefficients=  1.0000000000D+00
 F 4 1.00
     Exponent=  8.2289680979D+01 Coefficients=  6.1870000000D-02
     Exponent=  2.9923520356D+01 Coefficients=  2.4823000000D-01
     Exponent=  1.0881280130D+01 Coefficients=  4.9956000000D-01
     Exponent=  3.9568291380D+00 Coefficients=  4.0380000000D-01
 F 1 1.00
     Exponent=  1.4388469593D+00 Coefficients=  1.0000000000D+00
 F 1 1.00
     Exponent=  5.2321707610D-01 Coefficients=  1.0000000000D+00
 G 1 1.00
     Exponent=  2.6700000000D+00 Coefficients=  1.0000000000D+00
 G 1 1.00
     Exponent=  9.0960000000D-01 Coefficients=  1.0000000000D+00
 ****
 Ernie: Thresh=  0.10000D-02 Tol=  0.10000D-05 Strict=F.
 There are  2323 symmetry adapted cartesian basis functions of A   symmetry.
 There are  2157 symmetry adapted basis functions of A   symmetry.
  2157 basis functions,  3449 primitive gaussians,  2323 cartesian basis functions
   290 alpha electrons      290 beta electrons
       nuclear repulsion energy     16866.3574908749 Hartrees.
 IExCor= 1009 DFT=T Ex=PBE Corr=PBE ExCW=0 ScaHFX=  0.000000
 ScaDFX=  1.000000  1.000000  1.000000  1.000000 ScalE2=  1.000000  1.000000
 IRadAn=      0 IRanWt=     -1 IRanGd=            0 ICorTp=0 IEmpDi=  4
 NAtoms=  104 NActive=  104 NUniq=  104 SFac= 1.00D+00 NAtFMM=   60 NAOKFM=T Big=T
 Integral buffers will be    131072 words long.
 Raffenetti 2 integral format.
 Two-electron integral symmetry is turned on.
 ------------------------------------------------------------------------------
 Polarizable Continuum Model (PCM)
 =================================
 Model                : PCM (using non-symmetric T matrix).
 Atomic radii         : UFF (Universal Force Field).
 Polarization charges : Total charges.
 Charge compensation  : None.
 Solution method      : On-the-fly selection.
 Cavity type          : Scaled VdW (van der Waals Surface) (Alpha=1.100).
 Cavity algorithm     : GePol (No added spheres)
                        Default sphere list used, NSphG=  104.
                        Lebedev-Laikov grids with approx.  5.0 points / Ang**2.
                        Smoothing algorithm: Karplus/York (Gamma=1.0000).
                        Polarization charges: spherical gaussians, with
                                              point-specific exponents (IZeta= 3).
                        Self-potential: point-specific (ISelfS= 7).
                        Self-field    : sphere-specific E.n sum rule (ISelfD= 2).
 Solvent              : Dichloromethane, Eps=   8.930000 Eps(inf)=   2.028346
 ------------------------------------------------------------------------------
 GePol: Number of generator spheres                  =     104
 GePol: Total number of spheres                      =     104
 GePol: Number of exposed spheres                    =     104 (100.00%)
 GePol: Number of points                             =    7753
 GePol: Average weight of points                     =       0.12
 GePol: Minimum weight of points                     =   0.13D-11
 GePol: Maximum weight of points                     =    0.21838
 GePol: Number of points with low weight             =     549
 GePol: Fraction of low-weight points (<1% of avg)   =       7.08%
 GePol: Cavity surface area                          =    962.526 Ang**2
 GePol: Cavity volume                                =   1193.737 Ang**3
 Leave Link  301 at Mon Jan 13 03:51:31 2020, MaxMem=  4026531840 cpu:        10.1
 (Enter /scr/programs/g09/l302.exe)
 NPDir=0 NMtPBC=     1 NCelOv=     1 NCel=       1 NClECP=     1 NCelD=      1
         NCelK=      1 NCelE2=     1 NClLst=     1 CellRange=     0.0.
 One-electron integrals computed using PRISM.
 NBasis=  2157 RedAO= T EigKep=  1.35D-06  NBF=  2157
 NBsUse=  2157 1.00D-06 EigRej= -1.00D+00 NBFU=  2157
 Precomputing XC quadrature grid using
 IXCGrd= 4 IRadAn=           0 IRanWt=          -1 IRanGd=           0 AccXCQ= 0.00D+00.
 Defaulting to unpruned grid for atomic number  78.
 Defaulting to unpruned grid for atomic number  50.
 Defaulting to unpruned grid for atomic number  53.
 Generated NRdTot=       0 NPtTot=           0 NUsed=           0 NTot=          32
 NSgBfM=  1924  1936  1936  1939  1944 MxSgAt=   104 MxSgA2=   104.
 Leave Link  302 at Mon Jan 13 03:52:03 2020, MaxMem=  4026531840 cpu:       766.3
 (Enter /scr/programs/g09/l308.exe)
 Leave Link  308 at Mon Jan 13 03:52:08 2020, MaxMem=  4026531840 cpu:        96.3
 (Enter /scr/programs/g09/l303.exe)
 DipDrv:  MaxL=1.
 Leave Link  303 at Mon Jan 13 03:52:11 2020, MaxMem=  4026531840 cpu:        57.6
 (Enter /scr/programs/g09/l401.exe)
 ExpMin= 1.08D-02 ExpMax= 2.16D+06 ExpMxC= 2.16D+06 IAcc=4 IRadAn=    199590 AccDes= 0.00D+00
 Harris functional with IExCor= 1009 and IRadAn=  199590 diagonalized for initial guess.
 HarFok:  IExCor= 1009 AccDes= 0.00D+00 IRadAn=    199590 IDoV= 1 UseB2=F ITyADJ=14
 ICtDFT=  3500011 ScaDFX=  1.000000  1.000000  1.000000  1.000000
 FoFCou: FMM=F IPFlag=           0 FMFlag=      100000 FMFlg1=        2001
         NFxFlg=           0 DoJE=T BraDBF=F KetDBF=T FulRan=T
         wScrn=  0.000000 ICntrl=     500 IOpCl=  0 I1Cent=   200000004 NGrid=           0
         NMat0=    1 NMatS0=      1 NMatT0=    0 NMatD0=    1 NMtDS0=    0 NMtDT0=    0
 Petite list used in FoFCou.
 Harris En= -32738.3812878862    
 JPrj=0 DoOrth=F DoCkMO=F.
 Leave Link  401 at Mon Jan 13 03:55:42 2020, MaxMem=  4026531840 cpu:      4860.5
 (Enter /scr/programs/g09/l502.exe)
 Closed shell SCF:
 Using DIIS extrapolation, IDIIS=  1040.
 Integral symmetry usage will be decided dynamically.
 IVT=    16516035 IEndB=    16516035 NGot=  4026531840 MDV=  4015665458
 LenX=  4015665458 LenY=  4010266806
 Requested convergence on RMS density matrix=1.00D-04 within 500 cycles.
 Requested convergence on MAX density matrix=1.00D-02.
 Requested convergence on             energy=1.00D-02.
 No special actions if energy rises.
 Fock matrices will be formed incrementally for  20 cycles.

 Cycle   1  Pass 1  IDiag  1:
 FoFJK:  IHMeth= 1 ICntrl=     500 DoSepK=F KAlg= 0 I1Cent=   0 FoldK=F
 IRaf= 600000000 NMat=   1 IRICut=       1 DoRegI=T DoRafI=F ISym2E= 0.
 FoFCou: FMM=T IPFlag=           0 FMFlag=      100000 FMFlg1=        2001
         NFxFlg=           0 DoJE=T BraDBF=F KetDBF=F FulRan=T
         wScrn=  0.000000 ICntrl=     500 IOpCl=  0 I1Cent=           0 NGrid=           0
         NMat0=    1 NMatS0=      1 NMatT0=    0 NMatD0=    1 NMtDS0=    0 NMtDT0=    0
 Symmetry not used in FoFCou.
 FMM levels:  10  Number of levels for PrismC:   9
 Defaulting to unpruned grid for atomic number  78.
 Defaulting to unpruned grid for atomic number  78.
 Defaulting to unpruned grid for atomic number  78.
 Defaulting to unpruned grid for atomic number  78.
 Defaulting to unpruned grid for atomic number  78.
 Defaulting to unpruned grid for atomic number  78.
 Defaulting to unpruned grid for atomic number  78.
 Defaulting to unpruned grid for atomic number  78.
 Defaulting to unpruned grid for atomic number  78.
 Defaulting to unpruned grid for atomic number  78.
 Defaulting to unpruned grid for atomic number  78.
 Defaulting to unpruned grid for atomic number  78.
 Defaulting to unpruned grid for atomic number  78.
 Defaulting to unpruned grid for atomic number  78.
 Defaulting to unpruned grid for atomic number  78.
 Defaulting to unpruned grid for atomic number  78.
 Defaulting to unpruned grid for atomic number  78.
 Defaulting to unpruned grid for atomic number  78.
 Defaulting to unpruned grid for atomic number  78.
 Defaulting to unpruned grid for atomic number  78.
 Defaulting to unpruned grid for atomic number  78.
 Defaulting to unpruned grid for atomic number  78.
 Defaulting to unpruned grid for atomic number  78.
 Defaulting to unpruned grid for atomic number  78.
 Inv3:  Mode=1 IEnd=   180327027.
 Iteration    1 A*A^-1 deviation from unit magnitude is 1.20D-14 for   5882.
 Iteration    1 A*A^-1 deviation from orthogonality  is 1.29D-14 for   7142   6516.
 Iteration    1 A^-1*A deviation from unit magnitude is 1.30D-14 for   6341.
 Iteration    1 A^-1*A deviation from orthogonality  is 1.47D-09 for   5492   5482.
 Iteration    2 A*A^-1 deviation from unit magnitude is 1.10D-14 for   5514.
 Iteration    2 A*A^-1 deviation from orthogonality  is 1.11D-14 for   7202    167.
 Iteration    2 A^-1*A deviation from unit magnitude is 1.55D-15 for   2083.
 Iteration    2 A^-1*A deviation from orthogonality  is 8.38D-16 for   6154   2711.
 E= -32713.3737089488    
 DIIS: error= 1.75D-01 at cycle   1 NSaved=   1.
 NSaved= 1 IEnMin= 1 EnMin= -32713.3737089488     IErMin= 1 ErrMin= 1.75D-01
 ErrMax= 1.75D-01  0.00D+00 EMaxC= 1.00D-01 BMatC= 3.66D+02 BMatP= 3.66D+02
 IDIUse=3 WtCom= 0.00D+00 WtEn= 1.00D+00
 Coeff-Com:  0.100D+01
 Coeff-En:   0.100D+01
 Coeff:      0.100D+01
 Gap=     0.031 Goal=   None    Shift=    0.000
 GapD=    0.031 DampG=0.250 DampE=0.125 DampFc=0.1250 IDamp=-1.
 Damping current iteration by 1.25D-01
 RMSDP=7.92D-02 MaxDP=6.81D+01              OVMax= 8.59D-01

 Cycle   2  Pass 1  IDiag  1:
 RMSU=  9.47D-03    CP:  1.26D+00
 E= -32715.5568958210     Delta-E=       -2.183186872273 Rises=F Damp=T
 DIIS: error= 1.53D-01 at cycle   2 NSaved=   2.
 NSaved= 2 IEnMin= 2 EnMin= -32715.5568958210     IErMin= 2 ErrMin= 1.53D-01
 ErrMax= 1.53D-01  0.00D+00 EMaxC= 1.00D-01 BMatC= 2.59D+02 BMatP= 3.66D+02
 IDIUse=3 WtCom= 0.00D+00 WtEn= 1.00D+00
 Coeff-Com: -0.456D+01 0.556D+01
 Coeff-En:   0.000D+00 0.100D+01
 Coeff:      0.000D+00 0.100D+01
 Gap=    -0.042 Goal=   None    Shift=    0.000
 RMSDP=9.87D-03 MaxDP=7.06D+00 DE=-2.18D+00 OVMax= 8.67D-01

 Cycle   3  Pass 1  IDiag  1:
 RMSU=  6.10D-03    CP:  9.89D-01  2.43D-01
 E= -32711.8073020868     Delta-E=        3.749593734203 Rises=F Damp=F
 DIIS: error= 1.07D-01 at cycle   3 NSaved=   3.
 NSaved= 3 IEnMin= 2 EnMin= -32715.5568958210     IErMin= 3 ErrMin= 1.07D-01
 ErrMax= 1.07D-01  0.00D+00 EMaxC= 1.00D-01 BMatC= 3.62D+01 BMatP= 2.59D+02
 IDIUse=3 WtCom= 0.00D+00 WtEn= 1.00D+00
 EnCoef did   100 forward-backward iterations
 Coeff-Com:  0.733D+00-0.628D+00 0.895D+00
 Coeff-En:   0.519D+00 0.168D-01 0.464D+00
 Coeff:      0.519D+00 0.168D-01 0.464D+00
 Gap=    -0.290 Goal=   None    Shift=    0.000
 RMSDP=4.69D-03 MaxDP=1.11D+00 DE= 3.75D+00 OVMax= 9.32D-01

 Cycle   4  Pass 1  IDiag  1:
 RMSU=  2.49D-03    CP:  9.36D-01  7.99D-02  4.05D-01
 E= -32717.7537042700     Delta-E=       -5.946402183137 Rises=F Damp=F
 DIIS: error= 2.55D-02 at cycle   4 NSaved=   4.
 NSaved= 4 IEnMin= 4 EnMin= -32717.7537042700     IErMin= 4 ErrMin= 2.55D-02
 ErrMax= 2.55D-02  0.00D+00 EMaxC= 1.00D-01 BMatC= 3.42D+00 BMatP= 3.62D+01
 IDIUse=3 WtCom= 7.45D-01 WtEn= 2.55D-01
 EnCoef did   100 forward-backward iterations
 Coeff-Com:  0.343D+00-0.327D+00 0.126D+00 0.858D+00
 Coeff-En:   0.298D+00 0.476D-02 0.292D+00 0.405D+00
 Coeff:      0.332D+00-0.242D+00 0.168D+00 0.743D+00
 Gap=    -0.152 Goal=   None    Shift=    0.000
 RMSDP=1.09D-02 MaxDP=1.97D+00 DE=-5.95D+00 OVMax= 9.45D-01

 Cycle   5  Pass 1  IDiag  1:
 RMSU=  9.31D-03    CP:  1.16D+00  3.02D-01  4.81D-01 -8.38D-01
 E= -32655.3044527554     Delta-E=       62.449251514539 Rises=F Damp=F
 DIIS: error= 6.37D-02 at cycle   5 NSaved=   5.
 NSaved= 5 IEnMin= 4 EnMin= -32717.7537042700     IErMin= 4 ErrMin= 2.55D-02
 ErrMax= 6.37D-02  0.00D+00 EMaxC= 1.00D-01 BMatC= 2.84D+01 BMatP= 3.42D+00
 IDIUse=2 WtCom= 0.00D+00 WtEn= 1.00D+00
 EnCoef did    46 forward-backward iterations
 Coeff-En:   0.800D-01 0.000D+00 0.915D-01 0.723D+00 0.106D+00
 Coeff:      0.800D-01 0.000D+00 0.915D-01 0.723D+00 0.106D+00
 Gap=    -0.044 Goal=   None    Shift=    0.000
 RMSDP=9.04D-03 MaxDP=1.79D+00 DE= 6.24D+01 OVMax= 9.69D-01

 Cycle   6  Pass 1  IDiag  1:
 RMSU=  3.08D-03    CP:  9.58D-01  7.72D-02  3.67D-01 -3.86D-02  1.78D-01
 E= -32711.9941303105     Delta-E=      -56.689677555107 Rises=F Damp=F
 DIIS: error= 3.26D-02 at cycle   6 NSaved=   6.
 NSaved= 6 IEnMin= 4 EnMin= -32717.7537042700     IErMin= 4 ErrMin= 2.55D-02
 ErrMax= 3.26D-02  0.00D+00 EMaxC= 1.00D-01 BMatC= 5.04D+00 BMatP= 3.42D+00
 IDIUse=2 WtCom= 0.00D+00 WtEn= 1.00D+00
 Coeff-En:   0.000D+00 0.000D+00 0.000D+00 0.628D+00 0.000D+00 0.372D+00
 Coeff:      0.000D+00 0.000D+00 0.000D+00 0.628D+00 0.000D+00 0.372D+00
 Gap=     0.047 Goal=   None    Shift=    0.000
 RMSDP=2.89D-03 MaxDP=3.53D-01 DE=-5.67D+01 OVMax= 9.94D-01

 Cycle   7  Pass 1  IDiag  1:
 RMSU=  1.76D-03    CP:  9.63D-01  8.41D-02  4.25D-01  2.91D-01  1.04D-01
                    CP:  3.53D-01
 E= -32721.6909328744     Delta-E=       -9.696802563900 Rises=F Damp=F
 DIIS: error= 9.59D-03 at cycle   7 NSaved=   7.
 NSaved= 7 IEnMin= 7 EnMin= -32721.6909328744     IErMin= 7 ErrMin= 9.59D-03
 ErrMax= 9.59D-03  0.00D+00 EMaxC= 1.00D-01 BMatC= 4.94D-01 BMatP= 3.42D+00
 IDIUse=3 WtCom= 9.04D-01 WtEn= 9.59D-02
 Coeff-Com:  0.857D-01-0.883D-01 0.801D-02 0.279D+00-0.846D-02 0.166D+00
 Coeff-Com:  0.558D+00
 Coeff-En:   0.000D+00 0.000D+00 0.000D+00 0.396D-01 0.000D+00 0.000D+00
 Coeff-En:   0.960D+00
 Coeff:      0.775D-01-0.798D-01 0.724D-02 0.256D+00-0.765D-02 0.150D+00
 Coeff:      0.597D+00
 Gap=     0.187 Goal=   None    Shift=    0.000
 RMSDP=2.37D-03 MaxDP=7.01D-01 DE=-9.70D+00 OVMax= 3.97D-01

 Cycle   8  Pass 1  IDiag  1:
 RMSU=  1.37D-03    CP:  9.28D-01  5.85D-02  3.40D-01  4.43D-01  3.21D-02
                    CP:  2.22D-01  1.04D-01
 E= -32721.5226716894     Delta-E=        0.168261185056 Rises=F Damp=F
 DIIS: error= 7.22D-03 at cycle   8 NSaved=   8.
 NSaved= 8 IEnMin= 7 EnMin= -32721.6909328744     IErMin= 8 ErrMin= 7.22D-03
 ErrMax= 7.22D-03  0.00D+00 EMaxC= 1.00D-01 BMatC= 6.57D-01 BMatP= 4.94D-01
 IDIUse=3 WtCom= 9.04D-01 WtEn= 9.59D-02
 Coeff-Com: -0.107D-02 0.219D-02 0.370D-02 0.760D-01-0.125D-02 0.562D-02
 Coeff-Com:  0.498D+00 0.417D+00
 Coeff-En:   0.000D+00 0.000D+00 0.000D+00 0.000D+00 0.000D+00 0.000D+00
 Coeff-En:   0.546D+00 0.454D+00
 Coeff:     -0.970D-03 0.198D-02 0.334D-02 0.687D-01-0.113D-02 0.509D-02
 Coeff:      0.503D+00 0.420D+00
 Gap=     0.116 Goal=   None    Shift=    0.000
 RMSDP=9.77D-04 MaxDP=1.14D-01 DE= 1.68D-01 OVMax= 2.02D-01

 Cycle   9  Pass 1  IDiag  1:
 RMSU=  5.28D-04    CP:  9.28D-01  5.38D-02  3.58D-01  4.44D-01  4.69D-02
                    CP:  2.23D-01  3.48D-01  5.06D-01
 E= -32722.2301062831     Delta-E=       -0.707434593700 Rises=F Damp=F
 DIIS: error= 1.06D-03 at cycle   9 NSaved=   9.
 NSaved= 9 IEnMin= 9 EnMin= -32722.2301062831     IErMin= 9 ErrMin= 1.06D-03
 ErrMax= 1.06D-03  0.00D+00 EMaxC= 1.00D-01 BMatC= 1.92D-02 BMatP= 4.94D-01
 IDIUse=3 WtCom= 9.89D-01 WtEn= 1.06D-02
 Coeff-Com: -0.295D-01 0.341D-01-0.113D-02 0.206D-01-0.963D-03-0.760D-02
 Coeff-Com:  0.216D+00 0.196D+00 0.573D+00
 Coeff-En:   0.000D+00 0.000D+00 0.000D+00 0.000D+00 0.000D+00 0.000D+00
 Coeff-En:   0.000D+00 0.000D+00 0.100D+01
 Coeff:     -0.292D-01 0.338D-01-0.112D-02 0.204D-01-0.953D-03-0.752D-02
 Coeff:      0.213D+00 0.193D+00 0.578D+00
 Gap=     0.107 Goal=   None    Shift=    0.000
 RMSDP=3.71D-04 MaxDP=5.65D-02 DE=-7.07D-01 OVMax= 4.46D-02

 Cycle  10  Pass 1  IDiag  1:
 RMSU=  2.90D-04    CP:  9.30D-01  6.11D-02  3.71D-01  4.41D-01  5.12D-02
                    CP:  2.31D-01  3.68D-01  5.61D-01  6.58D-01
 E= -32722.2405920998     Delta-E=       -0.010485816732 Rises=F Damp=F
 DIIS: error= 9.25D-04 at cycle  10 NSaved=  10.
 NSaved=10 IEnMin=10 EnMin= -32722.2405920998     IErMin=10 ErrMin= 9.25D-04
 ErrMax= 9.25D-04  0.00D+00 EMaxC= 1.00D-01 BMatC= 1.03D-02 BMatP= 1.92D-02
 IDIUse=3 WtCom= 9.91D-01 WtEn= 9.25D-03
 Coeff-Com: -0.113D-01 0.133D-01-0.128D-02 0.872D-02-0.737D-03-0.511D-02
 Coeff-Com:  0.405D-01 0.249D-01 0.407D+00 0.524D+00
 Coeff-En:   0.000D+00 0.000D+00 0.000D+00 0.000D+00 0.000D+00 0.000D+00
 Coeff-En:   0.000D+00 0.000D+00 0.362D+00 0.638D+00
 Coeff:     -0.111D-01 0.131D-01-0.126D-02 0.864D-02-0.730D-03-0.507D-02
 Coeff:      0.401D-01 0.247D-01 0.406D+00 0.525D+00
 Gap=     0.104 Goal=   None    Shift=    0.000
 RMSDP=1.67D-04 MaxDP=2.23D-02 DE=-1.05D-02 OVMax= 2.89D-02

 Cycle  11  Pass 1  IDiag  1:
 RMSU=  1.16D-04    CP:  9.29D-01  5.93D-02  3.70D-01  4.60D-01  4.70D-02
                    CP:  2.18D-01  3.54D-01  5.39D-01  7.72D-01  7.99D-01
 E= -32722.2490860957     Delta-E=       -0.008493995861 Rises=F Damp=F
 DIIS: error= 4.38D-04 at cycle  11 NSaved=  11.
 NSaved=11 IEnMin=11 EnMin= -32722.2490860957     IErMin=11 ErrMin= 4.38D-04
 ErrMax= 4.38D-04  0.00D+00 EMaxC= 1.00D-01 BMatC= 2.40D-03 BMatP= 1.03D-02
 IDIUse=3 WtCom= 9.96D-01 WtEn= 4.38D-03
 Coeff-Com:  0.286D-03-0.720D-04-0.951D-03 0.800D-02-0.279D-03-0.348D-02
 Coeff-Com:  0.669D-02-0.696D-02 0.227D+00 0.370D+00 0.400D+00
 Coeff-En:   0.000D+00 0.000D+00 0.000D+00 0.000D+00 0.000D+00 0.000D+00
 Coeff-En:   0.000D+00 0.000D+00 0.000D+00 0.144D+00 0.856D+00
 Coeff:      0.284D-03-0.716D-04-0.947D-03 0.796D-02-0.278D-03-0.346D-02
 Coeff:      0.666D-02-0.693D-02 0.226D+00 0.369D+00 0.402D+00
 Gap=     0.103 Goal=   None    Shift=    0.000
 RMSDP=6.58D-05 MaxDP=6.54D-03 DE=-8.49D-03 OVMax= 1.11D-02

 Error on total polarization charges =  0.02629
 SCF Done:  E(RPBE-PBE) =  -32722.2490861     A.U. after   11 cycles
            NFock= 11  Conv=0.66D-04     -V/T= 2.0164
 KE= 3.219444982965D+04 PE=-1.110467946736D+05 EE= 2.926373826700D+04
 Leave Link  502 at Mon Jan 13 05:05:51 2020, MaxMem=  4026531840 cpu:    100468.1
 (Enter /scr/programs/g09/l801.exe)
 Range of M.O.s used for correlation:     1  2157
 NBasis=  2157 NAE=   290 NBE=   290 NFC=     0 NFV=     0
 NROrb=   2157 NOA=   290 NOB=   290 NVA=  1867 NVB=  1867

 **** Warning!!: The largest alpha MO coefficient is  0.61393157D+02

 Leave Link  801 at Mon Jan 13 05:05:51 2020, MaxMem=  4026531840 cpu:         4.5
 (Enter /scr/programs/g09/l1002.exe)
 Minotr:  Closed shell wavefunction.
 NEqPCM:  Using equilibrium solvation (IEInf=0, Eps=   8.9300, EpsInf=   2.0283)
          Direct CPHF calculation.
          Differentiating once with respect to magnetic field using GIAOs.
          Electric field/nuclear overlap derivatives assumed to be zero.
          Requested convergence is 1.0D-08 RMS, and 1.0D-07 maximum.
          Secondary convergence is 1.0D-12 RMS, and 1.0D-12 maximum.
          NewPWx=T KeepS1=F KeepF1=F KeepIn=T MapXYZ=F SortEE=F KeepMc=T.
          MDV=    4026528847 using IRadAn=       2.
 Defaulting to unpruned grid for atomic number  78.
 Defaulting to unpruned grid for atomic number  50.
 Defaulting to unpruned grid for atomic number  53.
 Generate precomputed XC quadrature information.
          Solving linear equations simultaneously, MaxMat=      72.
 FoFJK:  IHMeth= 1 ICntrl=    6127 DoSepK=F KAlg= 0 I1Cent=   0 FoldK=F
 IRaf=         1 NMat=   1 IRICut=       1 DoRegI=T DoRafI=F ISym2E= 0.
 Defaulting to unpruned grid for atomic number  78.
 Defaulting to unpruned grid for atomic number  78.
 Defaulting to unpruned grid for atomic number  78.
 Defaulting to unpruned grid for atomic number  78.
 Defaulting to unpruned grid for atomic number  78.
 Defaulting to unpruned grid for atomic number  78.
 Defaulting to unpruned grid for atomic number  78.
 Defaulting to unpruned grid for atomic number  78.
 Defaulting to unpruned grid for atomic number  78.
 Defaulting to unpruned grid for atomic number  78.
 Defaulting to unpruned grid for atomic number  78.
 Defaulting to unpruned grid for atomic number  78.
 Defaulting to unpruned grid for atomic number  78.
 Defaulting to unpruned grid for atomic number  78.
 Defaulting to unpruned grid for atomic number  78.
 Defaulting to unpruned grid for atomic number  78.
 Defaulting to unpruned grid for atomic number  78.
 Defaulting to unpruned grid for atomic number  78.
 Defaulting to unpruned grid for atomic number  78.
 Defaulting to unpruned grid for atomic number  78.
 Defaulting to unpruned grid for atomic number  78.
 Defaulting to unpruned grid for atomic number  78.
 Defaulting to unpruned grid for atomic number  78.
 Defaulting to unpruned grid for atomic number  78.
          There are     3 degrees of freedom in the 1st order CPHF.  IDoFFX=0 NUNeed=     3.
      3 vectors produced by pass  0 Test12= 1.80D-11 3.33D-08 XBig12= 2.29D+03 2.56D+00.
 AX will form     3 AO Fock derivatives at one time.
 InvSVY:  IOpt=1 It=  1 EMax= 0.00D+00
 Solved reduced A of dimension     3 with     3 vectors.
 Calculating GIAO nuclear magnetic shielding tensors.
 SCF GIAO Magnetic shielding tensor (ppm):
      1  Pt   Isotropic =  2750.9025   Anisotropy =  3676.0741
   XX=  3086.1252   YX=   542.3684   ZX=    28.4095
   XY=   785.5388   YY=  4992.9168   ZY=   -35.8949
   XZ=   -97.3415   YZ=   -22.4431   ZZ=   173.6654
   Eigenvalues:   173.1603  2877.9285  5201.6185
      2  C    Isotropic =   -77.6431   Anisotropy =    71.9231
   XX=   -64.7397   YX=   -27.3308   ZX=    -4.2023
   XY=     2.4827   YY=  -137.2599   ZY=    15.7559
   XZ=     1.0540   YZ=     5.0506   ZZ=   -30.9298
   Eigenvalues:  -140.2458   -62.9891   -29.6944
      3  C    Isotropic =   -15.8414   Anisotropy =   140.0712
   XX=    75.7517   YX=   -18.6979   ZX=     2.6519
   XY=     0.3364   YY=   -27.5967   ZY=   -84.2114
   XZ=     0.5724   YZ=   -98.8315   ZZ=   -95.6793
   Eigenvalues:  -159.3506    34.2869    77.5394
      4  C    Isotropic =   -15.9580   Anisotropy =   124.7300
   XX=    64.3081   YX=   -19.7579   ZX=     2.5995
   XY=    -3.8296   YY=     1.8644   ZY=    64.3558
   XZ=     2.8157   YZ=    68.5000   ZZ=  -114.0466
   Eigenvalues:  -144.5063    29.4369    67.1953
      5  C    Isotropic =    27.3197   Anisotropy =   207.0184
   XX=   162.2883   YX=   -32.2722   ZX=     6.9217
   XY=   -10.6975   YY=    13.3927   ZY=    53.4445
   XZ=    12.3672   YZ=    66.7242   ZZ=   -93.7219
   Eigenvalues:  -121.7488    38.3760   165.3320
      6  H    Isotropic =    24.9324   Anisotropy =    11.3086
   XX=    26.7589   YX=    -0.0144   ZX=    -1.1877
   XY=    -0.6554   YY=    26.9778   ZY=    -9.4112
   XZ=    -0.9941   YZ=    -6.3786   ZZ=    21.0605
   Eigenvalues:    15.4831    26.8425    32.4715
      7  C    Isotropic =    27.0816   Anisotropy =   203.1549
   XX=   160.0878   YX=   -27.7222   ZX=   -15.8131
   XY=   -12.5224   YY=    -6.7474   ZY=   -72.3511
   XZ=    -7.7879   YZ=   -79.6025   ZZ=   -72.0957
   Eigenvalues:  -123.6724    42.3989   162.5182
      8  H    Isotropic =    26.5150   Anisotropy =    10.3119
   XX=    30.3935   YX=     0.0438   ZX=    -2.3677
   XY=    -1.4470   YY=    28.3823   ZY=     7.3933
   XZ=    -1.7220   YZ=     6.3951   ZZ=    20.7693
   Eigenvalues:    16.5563    29.5992    33.3896
      9  C    Isotropic =    61.4383   Anisotropy =   306.7830
   XX=   262.8466   YX=   -40.2226   ZX=     5.9663
   XY=   -28.3560   YY=  -117.9984   ZY=    13.2068
   XZ=     3.2453   YZ=    13.5705   ZZ=    39.4665
   Eigenvalues:  -122.2296    40.5842   265.9602
     10  H    Isotropic =    21.1078   Anisotropy =    11.2915
   XX=    11.9641   YX=     1.8110   ZX=     0.8864
   XY=     1.7480   YY=    28.1220   ZY=     0.0552
   XZ=    -0.7593   YZ=     2.5743   ZZ=    23.2373
   Eigenvalues:    11.7698    22.9181    28.6355
     11  H    Isotropic =    22.3307   Anisotropy =     9.8937
   XX=    15.3533   YX=     1.7818   ZX=    -2.2288
   XY=     1.2705   YY=    27.7309   ZY=    -1.0547
   XZ=    -1.5537   YZ=    -2.9332   ZZ=    23.9078
   Eigenvalues:    14.8590    23.2065    28.9265
     12  H    Isotropic =    19.4793   Anisotropy =    12.3206
   XX=     4.9110   YX=     1.0529   ZX=    -0.7082
   XY=     1.7359   YY=    25.8981   ZY=    -0.0537
   XZ=    -0.9445   YZ=     0.6383   ZZ=    27.6289
   Eigenvalues:     4.7876    25.9573    27.6930
     13  P    Isotropic =   273.8618   Anisotropy =    47.7639
   XX=   295.7593   YX=    -9.7078   ZX=   -18.0051
   XY=   -30.2677   YY=   262.5007   ZY=     9.8581
   XZ=     2.8734   YZ=   -19.1957   ZZ=   263.3252
   Eigenvalues:   249.1153   266.7657   305.7044
     14  P    Isotropic =   267.0351   Anisotropy =    68.1901
   XX=   255.8410   YX=    24.6767   ZX=    -6.7366
   XY=     3.2810   YY=   308.5607   ZY=    -5.0479
   XZ=   -35.1162   YZ=     3.8796   ZZ=   236.7036
   Eigenvalues:   222.6593   265.9509   312.4952
     15  C    Isotropic =    28.1287   Anisotropy =   169.2835
   XX=     6.6987   YX=    46.4752   ZX=   -20.3383
   XY=    37.2702   YY=   114.9531   ZY=    39.9143
   XZ=   -19.1419   YZ=    67.7919   ZZ=   -37.2656
   Eigenvalues:   -68.6466    12.0484   140.9844
     16  C    Isotropic =    33.6759   Anisotropy =   173.3668
   XX=    -5.0777   YX=    20.0828   ZX=    51.7530
   XY=    13.2587   YY=   130.9664   ZY=    45.4161
   XZ=    52.6689   YZ=    44.8794   ZZ=   -24.8608
   Eigenvalues:   -71.2346    23.0085   149.2538
     17  C    Isotropic =    30.6504   Anisotropy =   176.3172
   XX=   -70.1425   YX=    57.1479   ZX=    11.5006
   XY=    35.3602   YY=   128.1145   ZY=    28.1344
   XZ=    -4.6131   YZ=    38.9283   ZZ=    33.9791
   Eigenvalues:   -80.5418    24.2977   148.1952
     18  C    Isotropic =    54.7548   Anisotropy =   204.3926
   XX=   -50.6371   YX=    60.1285   ZX=     8.2401
   XY=    47.4088   YY=   165.7697   ZY=    36.7771
   XZ=     4.6755   YZ=    47.1219   ZZ=    49.1316
   Eigenvalues:   -63.3639    36.6116   191.0165
     19  H    Isotropic =    25.1534   Anisotropy =    12.8524
   XX=    27.1003   YX=    -6.6705   ZX=     6.1955
   XY=    -1.8014   YY=    24.8334   ZY=    -2.2688
   XZ=     3.9641   YZ=    -3.7075   ZZ=    23.5266
   Eigenvalues:    19.9285    21.8101    33.7217
     20  C    Isotropic =    49.1705   Anisotropy =   182.4232
   XX=     9.0006   YX=    20.8771   ZX=    60.8635
   XY=    16.5328   YY=   150.1276   ZY=    48.7750
   XZ=    54.7190   YZ=    47.2574   ZZ=   -11.6168
   Eigenvalues:   -63.1450    39.8705   170.7859
     21  H    Isotropic =    23.8226   Anisotropy =    11.1860
   XX=    20.8888   YX=    -1.9614   ZX=     5.6963
   XY=    -0.0939   YY=    22.2859   ZY=    -3.2837
   XZ=     2.8058   YZ=    -2.5373   ZZ=    28.2932
   Eigenvalues:    18.9249    21.2631    31.2800
     22  C    Isotropic =    57.9623   Anisotropy =   228.7244
   XX=    26.8803   YX=    54.5618   ZX=   -19.3651
   XY=    43.1335   YY=   176.1442   ZY=    64.5144
   XZ=   -17.7024   YZ=    87.6705   ZZ=   -29.1377
   Eigenvalues:   -66.6642    30.1057   210.4452
     23  H    Isotropic =    23.9634   Anisotropy =     6.6514
   XX=    23.3382   YX=    -2.9751   ZX=     1.2622
   XY=    -1.2653   YY=    21.9587   ZY=    -3.0841
   XZ=     0.0183   YZ=    -2.5647   ZZ=    26.5934
   Eigenvalues:    19.7973    23.6954    28.3977
     24  H    Isotropic =    23.9157   Anisotropy =     8.9084
   XX=    24.5486   YX=    -3.3426   ZX=     4.2314
   XY=    -1.9573   YY=    22.4944   ZY=    -2.7144
   XZ=     2.7434   YZ=    -2.1103   ZZ=    24.7039
   Eigenvalues:    20.6791    21.2133    29.8546
     25  H    Isotropic =    23.6246   Anisotropy =     4.9944
   XX=    26.1952   YX=    -2.9387   ZX=    -0.2192
   XY=    -1.2640   YY=    21.0813   ZY=    -1.8102
   XZ=    -1.1380   YZ=    -1.1685   ZZ=    23.5973
   Eigenvalues:    19.6537    24.2659    26.9542
     26  C    Isotropic =    28.7433   Anisotropy =   177.3920
   XX=   128.8348   YX=    30.8996   ZX=   -19.0432
   XY=    45.5846   YY=   -19.9524   ZY=   -48.7934
   XZ=   -36.0489   YZ=   -45.5784   ZZ=   -22.6526
   Eigenvalues:   -68.7800     8.0052   147.0046
     27  C    Isotropic =    32.0451   Anisotropy =   152.0965
   XX=    96.3828   YX=    71.5610   ZX=   -53.6786
   XY=    40.2694   YY=   -45.5654   ZY=     7.9140
   XZ=   -34.6669   YZ=     9.4931   ZZ=    45.3178
   Eigenvalues:   -69.7599    32.4524   133.4427
     28  C    Isotropic =    37.6573   Anisotropy =   166.9626
   XX=   116.0280   YX=    41.4381   ZX=   -69.6053
   XY=    28.1974   YY=    34.8987   ZY=     2.7588
   XZ=   -64.1757   YZ=    13.0181   ZZ=   -37.9548
   Eigenvalues:   -66.8851    30.8913   148.9657
     29  C    Isotropic =    56.3204   Anisotropy =   190.6318
   XX=   149.8243   YX=    47.9366   ZX=   -72.0771
   XY=    42.5662   YY=    47.0503   ZY=     7.1079
   XZ=   -58.6425   YZ=     9.7582   ZZ=   -27.9134
   Eigenvalues:   -54.5453    40.0982   183.4082
     30  H    Isotropic =    23.4396   Anisotropy =    10.6965
   XX=    21.5827   YX=     0.2280   ZX=    -2.1544
   XY=     0.1492   YY=    20.2537   ZY=     4.5995
   XZ=    -1.6175   YZ=     3.8354   ZZ=    28.4824
   Eigenvalues:    18.2144    21.5338    30.5706
     31  C    Isotropic =    56.2265   Anisotropy =   198.8296
   XX=   140.7788   YX=    92.1636   ZX=   -50.2273
   XY=    72.8154   YY=   -17.5179   ZY=     5.9379
   XZ=   -43.1919   YZ=    -4.3790   ZZ=    45.4186
   Eigenvalues:   -56.5393    36.4392   188.7796
     32  H    Isotropic =    25.5332   Anisotropy =    12.7964
   XX=    23.1664   YX=    -3.3522   ZX=     1.2295
   XY=    -1.9608   YY=    30.2632   ZY=     7.5617
   XZ=     0.3934   YZ=     4.5238   ZZ=    23.1701
   Eigenvalues:    18.7327    23.8028    34.0642
     33  C    Isotropic =    63.0514   Anisotropy =   223.2621
   XX=   181.0941   YX=    67.1209   ZX=   -25.0097
   XY=    55.5815   YY=    14.3168   ZY=   -51.5489
   XZ=   -36.4111   YZ=   -63.8634   ZZ=    -6.2566
   Eigenvalues:   -55.8457    33.1072   211.8928
     34  H    Isotropic =    23.7410   Anisotropy =     7.4795
   XX=    20.9470   YX=    -1.7264   ZX=    -1.8403
   XY=    -1.7994   YY=    25.8198   ZY=     2.9128
   XZ=    -1.3019   YZ=     2.6733   ZZ=    24.4561
   Eigenvalues:    20.2233    22.2723    28.7273
     35  H    Isotropic =    23.9053   Anisotropy =     6.8205
   XX=    20.9149   YX=    -2.3345   ZX=     0.7493
   XY=    -1.9944   YY=    24.7380   ZY=     3.7635
   XZ=     1.0740   YZ=     2.0699   ZZ=    26.0628
   Eigenvalues:    19.2522    24.0113    28.4522
     36  H    Isotropic =    23.6573   Anisotropy =     4.5092
   XX=    21.1286   YX=    -3.1558   ZX=     0.4495
   XY=    -2.6995   YY=    25.0546   ZY=     0.5253
   XZ=     0.4835   YZ=    -0.6973   ZZ=    24.7888
   Eigenvalues:    19.5404    24.7681    26.6635
     37  C    Isotropic =    32.0759   Anisotropy =   198.3626
   XX=    42.7260   YX=   -85.7889   ZX=    56.0239
   XY=  -109.1433   YY=    33.8250   ZY=   -33.8636
   XZ=    58.7962   YZ=   -31.0022   ZZ=    19.6765
   Eigenvalues:   -63.4840    -4.6060   164.3176
     38  C    Isotropic =    42.7736   Anisotropy =   189.9355
   XX=    71.8106   YX=   -58.0097   ZX=    68.7914
   XY=   -56.0331   YY=    85.7748   ZY=   -40.0751
   XZ=    75.4403   YZ=   -46.6762   ZZ=   -29.2645
   Eigenvalues:   -67.9647    26.8883   169.3973
     39  C    Isotropic =    44.5073   Anisotropy =   185.9820
   XX=    88.3138   YX=   -75.8658   ZX=    21.1237
   XY=   -72.0508   YY=    33.7076   ZY=   -84.3598
   XZ=    20.4106   YZ=   -78.2577   ZZ=    11.5005
   Eigenvalues:   -67.9346    32.9612   168.4953
     40  C    Isotropic =    48.0978   Anisotropy =   193.8462
   XX=    94.0334   YX=   -74.0654   ZX=    17.9811
   XY=   -84.2081   YY=    36.4906   ZY=   -86.0850
   XZ=    19.6127   YZ=   -82.7416   ZZ=    13.7694
   Eigenvalues:   -70.6261    37.5909   177.3286
     41  H    Isotropic =    26.4739   Anisotropy =     7.4199
   XX=    27.7681   YX=    -0.4040   ZX=    -0.3175
   XY=     0.8129   YY=    30.6006   ZY=     2.9603
   XZ=    -0.5753   YZ=     2.8648   ZZ=    21.0530
   Eigenvalues:    20.2036    27.7976    31.4205
     42  C    Isotropic =    53.4342   Anisotropy =   192.2930
   XX=    82.0888   YX=   -53.2748   ZX=    71.8920
   XY=   -61.2845   YY=    94.9957   ZY=   -36.5273
   XZ=    85.0265   YZ=   -44.4069   ZZ=   -16.7820
   Eigenvalues:   -60.5458    39.2189   181.6295
     43  H    Isotropic =    24.0974   Anisotropy =    12.6205
   XX=    26.7549   YX=     5.1766   ZX=    -5.0147
   XY=     3.2786   YY=    22.9392   ZY=    -2.1098
   XZ=    -4.6509   YZ=    -3.0983   ZZ=    22.5981
   Eigenvalues:    19.3970    20.3842    32.5110
     44  C    Isotropic =    54.1473   Anisotropy =   208.0133
   XX=    58.6790   YX=   -99.4123   ZX=    52.8904
   XY=  -128.0186   YY=    50.5755   ZY=   -20.4962
   XZ=    65.2250   YZ=   -23.7376   ZZ=    53.1876
   Eigenvalues:   -65.2115    34.8307   192.8229
     45  H    Isotropic =    25.2583   Anisotropy =     7.4351
   XX=    28.6084   YX=     1.5260   ZX=    -2.4880
   XY=     0.7160   YY=    22.6354   ZY=     0.0626
   XZ=    -3.1061   YZ=    -0.8654   ZZ=    24.5312
   Eigenvalues:    22.4193    23.1407    30.2151
     46  H    Isotropic =    24.8360   Anisotropy =     4.8745
   XX=    26.5770   YX=     1.9039   ZX=    -1.1800
   XY=     2.3990   YY=    24.9076   ZY=     0.7235
   XZ=    -0.2688   YZ=    -0.0971   ZZ=    23.0234
   Eigenvalues:    22.5095    23.9128    28.0856
     47  H    Isotropic =    25.0696   Anisotropy =     2.9762
   XX=    25.7824   YX=     0.0811   ZX=    -0.9863
   XY=     0.2192   YY=    23.3965   ZY=     1.7912
   XZ=    -0.6623   YZ=     1.0724   ZZ=    26.0300
   Eigenvalues:    22.6939    25.4612    27.0537
     48  C    Isotropic =    40.8592   Anisotropy =   172.0169
   XX=    15.2156   YX=    79.8575   ZX=   -10.0664
   XY=    78.5298   YY=    96.8520   ZY=   -42.2186
   XZ=   -20.5569   YZ=   -30.0664   ZZ=    10.5100
   Eigenvalues:   -33.9733     1.0138   155.5371
     49  C    Isotropic =    47.8807   Anisotropy =   188.3167
   XX=    45.9369   YX=    67.3931   ZX=   -60.5577
   XY=    72.1306   YY=   112.4957   ZY=   -29.7391
   XZ=   -67.4261   YZ=   -19.4263   ZZ=   -14.7905
   Eigenvalues:   -57.2966    27.5136   173.4252
     50  C    Isotropic =    56.0963   Anisotropy =   198.6527
   XX=    82.6810   YX=    70.2726   ZX=   -31.0727
   XY=    82.3964   YY=   117.4469   ZY=   -56.1207
   XZ=     3.3034   YZ=   -42.2520   ZZ=   -31.8390
   Eigenvalues:   -47.3552    27.1127   188.5314
     51  C    Isotropic =    43.9149   Anisotropy =   178.8526
   XX=    67.2993   YX=    65.1520   ZX=     2.0200
   XY=    61.1875   YY=    96.1720   ZY=   -61.2617
   XZ=   -11.1075   YZ=   -73.2337   ZZ=   -31.7265
   Eigenvalues:   -64.3871    32.9820   163.1500
     52  H    Isotropic =    24.7089   Anisotropy =    12.1144
   XX=    27.7873   YX=    -2.6548   ZX=    -1.1081
   XY=    -5.6176   YY=    25.3386   ZY=     3.8457
   XZ=    -4.0581   YZ=     4.8469   ZZ=    21.0008
   Eigenvalues:    18.3122    23.0293    32.7852
     53  C    Isotropic =    57.4185   Anisotropy =   192.7114
   XX=    49.1138   YX=    80.6816   ZX=   -73.4425
   XY=    81.3040   YY=   121.4305   ZY=   -11.6071
   XZ=   -55.6608   YZ=   -12.6776   ZZ=     1.7110
   Eigenvalues:   -52.9693    39.3319   185.8927
     54  H    Isotropic =    25.0795   Anisotropy =     8.6529
   XX=    29.5675   YX=    -0.7985   ZX=     0.8103
   XY=     1.9946   YY=    26.5723   ZY=    -0.7559
   XZ=     6.7619   YZ=     0.2002   ZZ=    19.0987
[...]
 Alpha virt. eigenvalues --    2.19962   2.19979   2.20461   2.20660   2.20785
 Alpha virt. eigenvalues --    2.21160   2.21399   2.21727   2.21995   2.22335
 Alpha virt. eigenvalues --    2.22562   2.22837   2.23043   2.23478   2.23562
 Alpha virt. eigenvalues --    2.23923   2.24570   2.24702   2.24900   2.25036
 Alpha virt. eigenvalues --    2.25141   2.25712   2.25987   2.26269   2.27168
 Alpha virt. eigenvalues --    2.27482   2.27940   2.28310   2.28818   2.29111
 Alpha virt. eigenvalues --    2.29524   2.29866   2.30010   2.30299   2.30757
 Alpha virt. eigenvalues --    2.30879   2.31468   2.31890   2.32194   2.32561
 Alpha virt. eigenvalues --    2.32934   2.33411   2.33465   2.33608   2.34248
 Alpha virt. eigenvalues --    2.34396   2.34653   2.34682   2.35101   2.35482
 Alpha virt. eigenvalues --    2.35781   2.35938   2.36411   2.36699   2.37109
 Alpha virt. eigenvalues --    2.37415   2.38019   2.38511   2.38589   2.38753
 Alpha virt. eigenvalues --    2.39088   2.39187   2.39305   2.39724   2.40040
 Alpha virt. eigenvalues --    2.40515   2.40608   2.40912   2.41283   2.41353
 Alpha virt. eigenvalues --    2.41565   2.42178   2.42274   2.42586   2.42677
 Alpha virt. eigenvalues --    2.42940   2.43700   2.43767   2.44233   2.44339
 Alpha virt. eigenvalues --    2.44571   2.45126   2.45327   2.45920   2.46157
 Alpha virt. eigenvalues --    2.46414   2.46847   2.47264   2.47434   2.48221
 Alpha virt. eigenvalues --    2.48284   2.48651   2.48875   2.49281   2.49882
 Alpha virt. eigenvalues --    2.50464   2.51060   2.51200   2.51736   2.52025
 Alpha virt. eigenvalues --    2.52818   2.52987   2.53110   2.53638   2.54156
 Alpha virt. eigenvalues --    2.54496   2.55260   2.55675   2.55970   2.56497
 Alpha virt. eigenvalues --    2.56571   2.57002   2.57499   2.58100   2.58284
 Alpha virt. eigenvalues --    2.58937   2.59209   2.59451   2.59644   2.59980
 Alpha virt. eigenvalues --    2.60527   2.61066   2.61340   2.61644   2.62244
 Alpha virt. eigenvalues --    2.62381   2.62636   2.63447   2.64084   2.64267
 Alpha virt. eigenvalues --    2.64488   2.64690   2.64803   2.65033   2.65466
 Alpha virt. eigenvalues --    2.66114   2.66226   2.66667   2.66919   2.67607
 Alpha virt. eigenvalues --    2.67901   2.68215   2.68886   2.68956   2.69463
 Alpha virt. eigenvalues --    2.69587   2.69917   2.70169   2.70358   2.70577
 Alpha virt. eigenvalues --    2.70746   2.71283   2.71489   2.71966   2.72164
 Alpha virt. eigenvalues --    2.72573   2.72978   2.73395   2.73744   2.73933
 Alpha virt. eigenvalues --    2.74113   2.74213   2.74583   2.75621   2.75732
 Alpha virt. eigenvalues --    2.76025   2.76080   2.76523   2.76708   2.77201
 Alpha virt. eigenvalues --    2.77455   2.77831   2.78064   2.78204   2.78313
 Alpha virt. eigenvalues --    2.78451   2.79383   2.79657   2.79937   2.80389
 Alpha virt. eigenvalues --    2.80834   2.81151   2.81341   2.82105   2.82500
 Alpha virt. eigenvalues --    2.82883   2.83197   2.83958   2.84229   2.84986
 Alpha virt. eigenvalues --    2.85228   2.85854   2.85974   2.86627   2.87203
 Alpha virt. eigenvalues --    2.87374   2.87676   2.88081   2.88898   2.89100
 Alpha virt. eigenvalues --    2.90044   2.90140   2.90966   2.91373   2.91471
 Alpha virt. eigenvalues --    2.91971   2.92532   2.92777   2.93378   2.93784
 Alpha virt. eigenvalues --    2.94099   2.94378   2.94812   2.95432   2.95813
 Alpha virt. eigenvalues --    2.96156   2.96762   2.97152   2.97508   2.97799
 Alpha virt. eigenvalues --    2.98060   2.98488   2.98649   2.98775   2.99054
 Alpha virt. eigenvalues --    2.99340   2.99768   2.99908   3.00011   3.00259
 Alpha virt. eigenvalues --    3.00424   3.00769   3.01114   3.01293   3.01798
 Alpha virt. eigenvalues --    3.02058   3.02575   3.02837   3.03307   3.03342
 Alpha virt. eigenvalues --    3.03713   3.03898   3.04286   3.05159   3.05404
 Alpha virt. eigenvalues --    3.06529   3.06668   3.06990   3.07522   3.08229
 Alpha virt. eigenvalues --    3.08587   3.09993   3.11470   3.12365   3.13320
 Alpha virt. eigenvalues --    3.13998   3.14118   3.14417   3.14558   3.14960
 Alpha virt. eigenvalues --    3.15267   3.15623   3.16123   3.16264   3.16467
 Alpha virt. eigenvalues --    3.17002   3.17151   3.17700   3.17815   3.18388
 Alpha virt. eigenvalues --    3.18980   3.19538   3.20313   3.21840   3.23022
 Alpha virt. eigenvalues --    3.23954   3.24244   3.24771   3.25307   3.25636
 Alpha virt. eigenvalues --    3.25811   3.26174   3.26962   3.28106   3.28394
 Alpha virt. eigenvalues --    3.28886   3.30782   3.31387   3.32140   3.33407
 Alpha virt. eigenvalues --    3.34446   3.36006   3.36413   3.37451   3.38162
 Alpha virt. eigenvalues --    3.38513   3.39284   3.40422   3.41660   3.42657
 Alpha virt. eigenvalues --    3.44274   3.45654   3.46484   3.46622   3.47840
 Alpha virt. eigenvalues --    3.48661   3.48966   3.49423   3.50083   3.50955
 Alpha virt. eigenvalues --    3.52713   3.53638   3.53951   3.54279   3.55451
 Alpha virt. eigenvalues --    3.55626   3.55967   3.56548   3.57060   3.58608
 Alpha virt. eigenvalues --    3.70779   3.73344   3.80435   3.96676   4.02695
 Alpha virt. eigenvalues --    4.06737   4.07440   4.09005   4.11252   4.14938
 Alpha virt. eigenvalues --    4.16564   4.17707   4.18496   4.19525   4.21207
 Alpha virt. eigenvalues --    4.23434   4.24586   4.25371   4.26749   4.27152
 Alpha virt. eigenvalues --    4.27789   4.28025   4.29048   4.29311   4.31180
 Alpha virt. eigenvalues --    4.31683   4.32356   4.32825   4.33288   4.34765
 Alpha virt. eigenvalues --    4.35002   4.36001   4.37125   4.37727   4.39289
 Alpha virt. eigenvalues --    4.39578   4.39858   4.41128   4.41397   4.42465
 Alpha virt. eigenvalues --    4.42565   4.43236   4.45132   4.46037   4.47339
 Alpha virt. eigenvalues --    4.47431   4.48905   4.50444   4.51186   4.51560
 Alpha virt. eigenvalues --    4.53437   4.55172   4.56757   4.57881   4.59105
 Alpha virt. eigenvalues --    4.62355   4.73625   4.79746   4.79881   4.80040
 Alpha virt. eigenvalues --    4.80636   4.80783   4.81184   4.81553   4.82326
 Alpha virt. eigenvalues --    4.86118   5.55182   5.58628   5.72679   5.79815
 Alpha virt. eigenvalues --    5.88740   5.93464   5.94927   6.12458   6.22323
 Alpha virt. eigenvalues --    6.64199   6.64641   6.64854   6.66808   6.67390
 Alpha virt. eigenvalues --    6.68499   6.69723   6.72181   6.77972   6.81708
 Alpha virt. eigenvalues --    6.82247   6.82970   6.83249   6.84280   6.85976
 Alpha virt. eigenvalues --    6.86954   6.87808   6.88655   6.90498   6.91938
 Alpha virt. eigenvalues --    6.93132   6.94744   6.95468   6.96777   6.97582
 Alpha virt. eigenvalues --    6.97737   6.99414   7.01038   7.01803   7.03613
 Alpha virt. eigenvalues --    7.03831   7.05989   7.08250   7.09895   7.11487
 Alpha virt. eigenvalues --    7.11788   7.12299   7.13069   7.14385   7.14723
 Alpha virt. eigenvalues --    7.15789   7.16386   7.17953   7.24817   7.25628
 Alpha virt. eigenvalues --    7.27269   7.28030   7.28762   7.29404   7.29763
 Alpha virt. eigenvalues --    7.31104   7.32146   7.32566   7.34388   7.34916
 Alpha virt. eigenvalues --    7.71671   7.78224   7.79925   7.82395   7.85475
 Alpha virt. eigenvalues --    7.88301   8.53400   8.53535   8.53882   8.55098
 Alpha virt. eigenvalues --    8.56130   8.56799   8.57708   8.61304   8.68367
 Alpha virt. eigenvalues --    9.14160  10.07869  10.10927  10.13924  10.15873
 Alpha virt. eigenvalues --   10.32785  14.18906  14.24011  15.94233  16.62416
 Alpha virt. eigenvalues --   17.02074  17.04188  17.05072  17.05140  17.05648
 Alpha virt. eigenvalues --   17.05880  17.06567  17.06592  17.07176  17.07259
 Alpha virt. eigenvalues --   17.07718  17.08779  17.09122  17.09710  17.10213
 Alpha virt. eigenvalues --   17.10782  17.11849  17.12382  17.12973  17.13541
 Alpha virt. eigenvalues --   17.15107  17.16025  17.17003  17.17901  17.18831
 Alpha virt. eigenvalues --   17.19968  17.21509  17.23993  17.24958  17.25892
 Alpha virt. eigenvalues --   17.27115  17.27180  17.28572  17.29594  17.29895
 Alpha virt. eigenvalues --   17.31547  17.32626  17.32801  17.33246  17.34432
 Alpha virt. eigenvalues --   17.34831  17.35309  17.35748  17.35987  17.36508
 Alpha virt. eigenvalues --   17.36955  17.37633  17.39544  17.40703  17.41856
 Alpha virt. eigenvalues --   17.42979  17.44912  17.46053  17.47636  21.12982
 Alpha virt. eigenvalues --   21.32528  21.41751  25.68255  25.80943  25.83273
 Alpha virt. eigenvalues --   26.29192  28.00630  28.03197  28.16003  31.80201
 Alpha virt. eigenvalues --   31.82411  31.85979  31.89667  31.91045  36.48729
 Alpha virt. eigenvalues --   36.50154  36.55504  36.56603  36.60530  43.05647
 Alpha virt. eigenvalues --   43.06529  43.10010  43.11174  43.22089  61.89361
 Alpha virt. eigenvalues --   61.93666  63.29085  69.89361  82.32743  86.23590
 Alpha virt. eigenvalues --   86.39428  86.46745  89.24787  89.28343  89.29866
 Alpha virt. eigenvalues --   89.31237  89.31663  89.32681  89.33149  89.33373
 Alpha virt. eigenvalues --   89.33759  89.34205  89.34497  89.34903  89.35858
 Alpha virt. eigenvalues --   89.36206  89.36602  89.37441  89.38045  89.39161
 Alpha virt. eigenvalues --   89.39523  89.39839  89.40635  89.41717  89.42052
 Alpha virt. eigenvalues --   89.43533  89.44527  89.45619  89.47631  89.49994
 Alpha virt. eigenvalues --   89.51238  89.51720  89.52868  89.53312  89.54579
 Alpha virt. eigenvalues --   89.55796  89.56344  89.57817  89.58974  89.59481
 Alpha virt. eigenvalues --   89.60145  89.61238  89.62718  89.63358  89.63894
 Alpha virt. eigenvalues --   89.64071  89.64483  89.64935  89.64972  89.66965
 Alpha virt. eigenvalues --   89.67739  89.68221  89.69362  89.70766  89.71886
 Alpha virt. eigenvalues --   89.74001 121.98696 122.07848 122.09563 139.24451
 Alpha virt. eigenvalues --  139.26257 139.35535 239.44318 257.42834 270.56634
 Alpha virt. eigenvalues --  332.22492 332.26892 428.82695 428.95031 429.00866
 Alpha virt. eigenvalues --  590.33494 590.40524 590.41856 688.11618 688.13015
 Alpha virt. eigenvalues --  688.20315 773.09718 839.81952 957.891432068.69105
 Alpha virt. eigenvalues -- 2530.176402886.107855495.48590********************
 Alpha virt. eigenvalues -- ********************
          Condensed to atoms (all electrons):
 Mulliken charges:
               1
     1  Pt   0.348833
     2  C    0.415261
     3  C   -0.166622
     4  C   -0.126047
     5  C   -0.047888
     6  H    0.043364
     7  C    0.021911
     8  H    0.034453
     9  C   -0.626652
    10  H    0.110746
    11  H    0.118290
    12  H    0.135004
    13  P    0.993123
    14  P    0.813056
    15  C   -0.954206
    16  C    0.397554
    17  C    0.413599
    18  C    0.004630
    19  H    0.096794
    20  C   -0.244464
    21  H    0.063752
    22  C   -0.624237
    23  H    0.139724
    24  H    0.132004
    25  H    0.150616
    26  C   -0.800721
    27  C    0.665842
    28  C    0.151077
    29  C    0.012939
    30  H    0.038667
    31  C   -0.203447
    32  H    0.086084
    33  C   -0.475309
    34  H    0.129428
    35  H    0.130898
    36  H    0.144546
    37  C   -0.876753
    38  C    0.513173
    39  C    0.242670
    40  C   -0.110377
    41  H    0.050613
    42  C   -0.196179
    43  H    0.087376
    44  C   -0.485933
    45  H    0.129257
    46  H    0.134502
    47  H    0.145640
    48  C   -0.699144
    49  C    0.188184
    50  C    0.470136
    51  C   -0.231518
    52  H    0.097545
    53  C   -0.102415
    54  H    0.070592
    55  C   -0.514479
    56  H    0.134806
    57  H    0.127409
    58  H    0.141065
    59  C   -0.641028
    60  C    0.134830
    61  C    0.427759
    62  C   -0.057967
    63  H    0.056877
    64  C   -0.030913
    65  H    0.052938
    66  C   -0.531960
    67  H    0.131818
    68  H    0.131923
    69  H    0.142755
    70  C   -0.837045
    71  C    0.414618
    72  C    0.306716
    73  C   -0.033659
    74  H    0.092004
    75  C   -0.217720
    76  H    0.064568
    77  C   -0.596061
    78  H    0.139284
    79  H    0.125149
    80  H    0.147833
    81  Sn   0.339443
    82  C    0.068983
    83  C    0.030933
    84  C    0.001211
    85  C   -0.143442
    86  H    0.107579
    87  C   -0.068991
    88  H    0.070593
    89  C   -0.522213
    90  H    0.141603
    91  H    0.138054
    92  H    0.145651
    93  C   -0.071927
    94  C   -0.015513
    95  C    0.051432
    96  C   -0.105057
    97  H    0.107279
    98  C   -0.138837
    99  H    0.110677
   100  C   -0.481488
   101  H    0.145680
   102  H    0.140803
   103  H    0.151150
   104  I   -0.465095
 Sum of Mulliken charges =   0.00000
 Mulliken charges with hydrogens summed into heavy atoms:
               1
     1  Pt   0.348833
     2  C    0.415261
     3  C   -0.123258
     4  C   -0.091595
     5  C    0.062857
     7  C    0.140201
     9  C   -0.491648
    13  P    0.993123
    14  P    0.813056
    15  C   -0.954206
    16  C    0.494348
    17  C    0.477351
    18  C    0.144354
    20  C   -0.112460
    22  C   -0.473621
    26  C   -0.800721
    27  C    0.704510
    28  C    0.237161
    29  C    0.142368
    31  C   -0.072549
    33  C   -0.330763
    37  C   -0.876753
    38  C    0.563785
    39  C    0.330047
    40  C    0.018880
    42  C   -0.061677
    44  C   -0.340293
    48  C   -0.699144
    49  C    0.285729
    50  C    0.540728
    51  C   -0.096712
    53  C    0.024995
    55  C   -0.373414
    59  C   -0.641028
    60  C    0.191707
    61  C    0.480697
    62  C    0.073851
    64  C    0.101010
    66  C   -0.389206
    70  C   -0.837045
    71  C    0.506622
    72  C    0.371284
    73  C    0.105625
    75  C   -0.092571
    77  C   -0.448228
    81  Sn   0.339443
    82  C    0.068983
    83  C    0.138512
    84  C    0.071804
    85  C   -0.001840
    87  C    0.069063
    89  C   -0.376562
    93  C   -0.071927
    94  C    0.091766
    95  C    0.162108
    96  C    0.040623
    98  C    0.001965
   100  C   -0.330338
   104  I   -0.465095
 Electronic spatial extent (au):  <R**2>=          43609.7807
 Charge=              0.0000 electrons
 Dipole moment (field-independent basis, Debye):
    X=            -11.7321    Y=             -2.0624    Z=              3.5010  Tot=             12.4158
 Quadrupole moment (field-independent basis, Debye-Ang):
   XX=           -415.0629   YY=           -388.3993   ZZ=           -385.9188
   XY=             -0.5781   XZ=             16.0695   YZ=             -5.6437
 Traceless Quadrupole moment (field-independent basis, Debye-Ang):
   XX=            -18.6026   YY=              8.0610   ZZ=             10.5416
   XY=             -0.5781   XZ=             16.0695   YZ=             -5.6437
 Octapole moment (field-independent basis, Debye-Ang**2):
  XXX=             47.7263  YYY=            -12.6822  ZZZ=            -69.5809  XYY=             27.2115
  XXY=            -39.3110  XXZ=             16.7983  XZZ=            -36.3967  YZZ=             15.4383
  YYZ=            -21.3130  XYZ=            -11.8754
 Hexadecapole moment (field-independent basis, Debye-Ang**3):
 XXXX=         -27014.0660 YYYY=         -19568.3843 ZZZZ=         -10150.4599 XXXY=            -78.1340
 XXXZ=            100.9932 YYYX=             -5.5872 YYYZ=            123.6764 ZZZX=           -181.1612
 ZZZY=            -89.9776 XXYY=          -7187.4981 XXZZ=          -6023.4214 YYZZ=          -4731.9318
 XXYZ=           -175.1608 YYXZ=           -156.9265 ZZXY=            -54.4086
 N-N= 1.686635749087D+04 E-N=-1.110473822621D+05  KE= 3.219444982965D+04
 Leave Link  601 at Mon Jan 13 07:09:48 2020, MaxMem=  4026531840 cpu:       112.7
 (Enter /scr/programs/g09/l9999.exe)
 1\1\GINC-NEQC27\SP\RPBEPBE\Gen\C54H45I1P2Pt1Sn1\GUEST\13-Jan-2020\0\\#
 PBEPBE/gen scf=(maxcycle=500,conver=4) NMR=GIAO Scrf=(solvent=Dichloro
 methane)\\estrutura 88\\0,1\Pt,0,-0.195184,0.336795,-0.046991\C,0,0.33
 3639,2.444462,-0.161839\C,0,0.412674,3.07143,-1.415913\C,0,0.383972,3.
 261358,0.978391\C,0,0.487659,4.46309,-1.529319\H,0,0.420786,2.480262,-
 2.323231\C,0,0.467724,4.652723,0.870685\H,0,0.353109,2.82139,1.966416\
 C,0,0.513921,5.260777,-0.384555\H,0,0.536644,4.918534,-2.510884\H,0,0.
 497873,5.257691,1.768478\H,0,0.581067,6.33768,-0.4696\P,0,-2.90985,1.0
 96966,0.162852\P,0,-0.549273,-2.249663,-0.115354\C,0,-3.638815,1.84045
 6,-1.37845\C,0,-4.988567,2.220218,-1.456185\C,0,-2.824793,1.995858,-2.
 505184\C,0,-5.504039,2.757845,-2.634097\H,0,-5.63954,2.091815,-0.60221
 6\C,0,-3.341095,2.53447,-3.686401\H,0,-1.787426,1.696029,-2.459625\C,0
 ,-4.680256,2.918063,-3.751809\H,0,-6.545212,3.048919,-2.680523\H,0,-2.
 698363,2.64921,-4.549466\H,0,-5.082607,3.333839,-4.666158\C,0,-2.98679
 8,2.456144,1.430235\C,0,-2.483009,2.184871,2.712287\C,0,-3.471385,3.74
 0053,1.15656\C,0,-2.497153,3.161207,3.706575\H,0,-2.071078,1.209757,2.
 939533\C,0,-3.472055,4.723588,2.148931\H,0,-3.841591,3.984219,0.171365
 \C,0,-2.993637,4.436394,3.42698\H,0,-2.112322,2.930125,4.691451\H,0,-3
 .845399,5.712892,1.918315\H,0,-2.997601,5.198649,4.194664\C,0,-4.31516
 8,-0.026437,0.677661\C,0,-4.708038,-1.030538,-0.222516\C,0,-4.981259,0
 .078673,1.904877\C,0,-5.749999,-1.90092,0.094639\H,0,-4.212283,-1.13,-
 1.179433\C,0,-6.021277,-0.799711,2.223998\H,0,-4.707307,0.846492,2.613
 551\C,0,-6.409711,-1.789692,1.321218\H,0,-6.043617,-2.661869,-0.616602
 \H,0,-6.52813,-0.699399,3.175178\H,0,-7.219084,-2.464815,1.566848\C,0,
 0.853174,-3.437504,-0.435977\C,0,1.051135,-4.036579,-1.685921\C,0,1.75
 1217,-3.723645,0.60231\C,0,2.120731,-4.910974,-1.889824\H,0,0.375651,-
 3.830733,-2.503568\C,0,2.815436,-4.599764,0.398158\H,0,1.621856,-3.268
 84,1.574188\C,0,3.004075,-5.197281,-0.849655\H,0,2.260147,-5.36488,-2.
 862179\H,0,3.496379,-4.811439,1.211939\H,0,3.831516,-5.876171,-1.00790
 5\C,0,-1.70944,-2.653231,-1.514228\C,0,-2.605717,-3.729272,-1.499642\C
 ,0,-1.63821,-1.844833,-2.658028\C,0,-3.41143,-3.992353,-2.607919\H,0,-
 2.690032,-4.360375,-0.627117\C,0,-2.439172,-2.112539,-3.76933\H,0,-0.9
 56594,-1.003669,-2.68146\C,0,-3.327871,-3.187986,-3.746371\H,0,-4.1015
 03,-4.825501,-2.581618\H,0,-2.370183,-1.480611,-4.645111\H,0,-3.952435
 ,-3.395395,-4.605057\C,0,-1.3021,-2.990468,1.414579\C,0,-1.381196,-4.3
 75764,1.62912\C,0,-1.771709,-2.125344,2.410314\C,0,-1.941753,-4.878454
 ,2.802121\H,0,-0.990469,-5.064568,0.892745\C,0,-2.329224,-2.627675,3.5
 87337\H,0,-1.690962,-1.056522,2.266171\C,0,-2.417939,-4.005442,3.78385
 9\H,0,-1.997732,-5.948581,2.953626\H,0,-2.685647,-1.94481,4.347308\H,0
 ,-2.846932,-4.398212,4.696046\Sn,0,2.481401,0.495489,0.058509\C,0,3.32
 7677,-0.674268,1.717989\C,0,4.640855,-1.17056,1.675531\C,0,2.576072,-0
 .894828,2.882893\C,0,5.181812,-1.872131,2.755081\H,0,5.251261,-1.02092
 2,0.792236\C,0,3.114607,-1.588264,3.971054\H,0,1.555077,-0.53337,2.945
 929\C,0,4.419527,-2.081014,3.907425\H,0,6.194129,-2.253365,2.697479\H,
 0,2.5175,-1.746248,4.860773\H,0,4.837982,-2.623859,4.744917\C,0,3.7919
 66,2.258949,0.109493\C,0,4.434382,2.599271,1.310923\C,0,4.024975,3.069
 931,-1.012075\C,0,5.279023,3.710953,1.391605\H,0,4.288945,1.992757,2.1
 96743\C,0,4.870389,4.178991,-0.93895\H,0,3.550475,2.838746,-1.957286\C
 ,0,5.500019,4.503428,0.265099\H,0,5.764051,3.951824,2.329457\H,0,5.037
 081,4.787723,-1.818799\H,0,6.155962,5.362427,0.322947\I,0,3.574426,-0.
 698777,-2.295575\\Version=EM64L-G09RevD.01\State=1-A\HF=-32722.2490861
 \RMSD=6.576e-05\Dipole=-4.615746,-0.8114284,1.3773988\Quadrupole=-13.8
 30568,5.9931799,7.8373881,-0.429795,11.9472783,-4.1959783\PG=C01 [X(C5
 4H45I1P2Pt1Sn1)]\\@


 MAN IS A SINGULAR CREATURE.  HE HAS A SET OF GIFTS
 WHICH MAKE HIM UNIQUE AMONG THE ANIMALS: SO THAT, 
 UNLIKE THEM, HE IS NOT A FIGURE IN THE LANDSCAPE --
 HE IS A SHAPER OF THE LANDSCAPE.

                       -- JACOB BRONOWSKI
 Job cpu time:       3 days  5 hours 49 minutes 52.7 seconds.
 File lengths (MBytes):  RWF=   3608 Int=      0 D2E=      0 Chk=    253 Scr=      1
 Normal termination of Gaussian 09 at Mon Jan 13 07:09:49 2020.
