 Entering Gaussian System, Link 0=g09
 Input=/home/nqtcm/milena/Pt-Sn/B3LYP_LANL2DZ_def2-SVP/nmr/estrutura74.com
 Output=/home/nqtcm/milena/Pt-Sn/B3LYP_LANL2DZ_def2-SVP/nmr/estrutura74.log
 Initial command:
 /scr/programas/g09/l1.exe "/scr/nqtcm/Gau-23638.inp" -scrdir="/scr/nqtcm/"
 Entering Link 1 = /scr/programas/g09/l1.exe PID=     23640.
  
 Copyright (c) 1988,1990,1992,1993,1995,1998,2003,2009,2013,
            Gaussian, Inc.  All Rights Reserved.
  
 This is part of the Gaussian(R) 09 program.  It is based on
 the Gaussian(R) 03 system (copyright 2003, Gaussian, Inc.),
 the Gaussian(R) 98 system (copyright 1998, Gaussian, Inc.),
 the Gaussian(R) 94 system (copyright 1995, Gaussian, Inc.),
 the Gaussian 92(TM) system (copyright 1992, Gaussian, Inc.),
 the Gaussian 90(TM) system (copyright 1990, Gaussian, Inc.),
 the Gaussian 88(TM) system (copyright 1988, Gaussian, Inc.),
 the Gaussian 86(TM) system (copyright 1986, Carnegie Mellon
 University), and the Gaussian 82(TM) system (copyright 1983,
 Carnegie Mellon University). Gaussian is a federally registered
 trademark of Gaussian, Inc.
  
 This software contains proprietary and confidential information,
 including trade secrets, belonging to Gaussian, Inc.
  
 This software is provided under written license and may be
 used, copied, transmitted, or stored only in accord with that
 written license.
  
 The following legend is applicable only to US Government
 contracts under FAR:
  
                    RESTRICTED RIGHTS LEGEND
  
 Use, reproduction and disclosure by the US Government is
 subject to restrictions as set forth in subparagraphs (a)
 and (c) of the Commercial Computer Software - Restricted
 Rights clause in FAR 52.227-19.
  
 Gaussian, Inc.
 340 Quinnipiac St., Bldg. 40, Wallingford CT 06492
  
  
 ---------------------------------------------------------------
 Warning -- This program may not be used in any manner that
 competes with the business of Gaussian, Inc. or will provide
 assistance to any competitor of Gaussian, Inc.  The licensee
 of this program is prohibited from giving any competitor of
 Gaussian, Inc. access to this program.  By using this program,
 the user acknowledges that Gaussian, Inc. is engaged in the
 business of creating and licensing software in the field of
 computational chemistry and represents and warrants to the
 licensee that it is not a competitor of Gaussian, Inc. and that
 it will not use this program in any manner prohibited above.
 ---------------------------------------------------------------
  

 Cite this work as:
 Gaussian 09, Revision D.01,
 M. J. Frisch, G. W. Trucks, H. B. Schlegel, G. E. Scuseria, 
 M. A. Robb, J. R. Cheeseman, G. Scalmani, V. Barone, B. Mennucci, 
 G. A. Petersson, H. Nakatsuji, M. Caricato, X. Li, H. P. Hratchian, 
 A. F. Izmaylov, J. Bloino, G. Zheng, J. L. Sonnenberg, M. Hada, 
 M. Ehara, K. Toyota, R. Fukuda, J. Hasegawa, M. Ishida, T. Nakajima, 
 Y. Honda, O. Kitao, H. Nakai, T. Vreven, J. A. Montgomery, Jr., 
 J. E. Peralta, F. Ogliaro, M. Bearpark, J. J. Heyd, E. Brothers, 
 K. N. Kudin, V. N. Staroverov, T. Keith, R. Kobayashi, J. Normand, 
 K. Raghavachari, A. Rendell, J. C. Burant, S. S. Iyengar, J. Tomasi, 
 M. Cossi, N. Rega, J. M. Millam, M. Klene, J. E. Knox, J. B. Cross, 
 V. Bakken, C. Adamo, J. Jaramillo, R. Gomperts, R. E. Stratmann, 
 O. Yazyev, A. J. Austin, R. Cammi, C. Pomelli, J. W. Ochterski, 
 R. L. Martin, K. Morokuma, V. G. Zakrzewski, G. A. Voth, 
 P. Salvador, J. J. Dannenberg, S. Dapprich, A. D. Daniels, 
 O. Farkas, J. B. Foresman, J. V. Ortiz, J. Cioslowski, 
 and D. J. Fox, Gaussian, Inc., Wallingford CT, 2013.
 
 ******************************************
 Gaussian 09:  EM64L-G09RevD.01 24-Apr-2013
                 4-Nov-2019 
 ******************************************
 %mem=7Gb
 %nproc=4
 Will use up to    4 processors via shared memory.
 ----------------------------------------------------------------------
 #PBEPBE/gen scf=(maxcycle=500,conver=4) NMR=GIAO Scrf=(solvent=Dichlor
 omethane)
 ----------------------------------------------------------------------
 1/38=1/1;
 2/12=2,17=6,18=5,40=1/2;
 3/5=7,11=2,16=1,25=1,30=1,70=2201,72=9,74=1009/1,2,8,3;
 4//1;
 5/5=2,6=4,7=500,38=5,53=9/2;
 8/6=1,10=90,11=11/1;
 10/13=100,45=16/2;
 6/7=2,8=2,9=2,10=2,28=1/1;
 99/9=1/99;
 Leave Link    1 at Mon Nov  4 05:56:15 2019, MaxMem=   939524096 cpu:         0.2
 (Enter /scr/programas/g09/l101.exe)
 ------------
 estrutura 74
 ------------
 Symbolic Z-matrix:
 Charge =  0 Multiplicity = 1
 Pt                    0.15267  -0.05243  -0.02282 
 P                     0.23995   2.3589   -0.06763 
 P                    -0.01143  -2.44283   0.10951 
 C                     0.52894   2.96746   1.65922 
 H                     1.38899   2.38598   2.0259 
 H                    -0.34412   2.62863   2.24053 
 C                     0.77993   4.46492   1.85919 
 H                    -0.03849   5.08807   1.46561 
 H                     0.87324   4.68508   2.9354 
 H                     1.71651   4.78716   1.37922 
 C                     1.67094   2.99079  -1.08727 
 H                     1.81101   2.26802  -1.90479 
 C                    -1.2314    3.29841  -0.70914 
 H                    -0.8518    4.28081  -1.02782 
 H                    -1.55316   2.77651  -1.62455 
 C                    -2.41447   3.49884   0.24243 
 H                    -3.20137   4.07244  -0.27312 
 H                    -2.8536    2.54987   0.57231 
 H                    -2.12928   4.07116   1.13781 
 C                     0.88515  -3.32697  -1.2474 
 H                     0.76166  -4.40928  -1.07892 
 H                     1.95543  -3.11322  -1.10437 
 C                     0.42561  -2.93077  -2.65298 
 H                    -0.6368   -3.16978  -2.82147 
 H                     0.5603   -1.85042  -2.82546 
 H                     1.00992  -3.4714   -3.41297 
 C                    -1.73618  -3.132     0.06807 
 H                    -2.23284  -2.74767   0.97394 
 H                    -2.25446  -2.65065  -0.77627 
 C                    -1.86198  -4.65602  -0.01422 
 H                    -2.92183  -4.94533   0.06282 
 H                    -1.48296  -5.05352  -0.96795 
 H                    -1.32743  -5.16714   0.80191 
 C                     0.70772  -3.13735   1.6726 
 H                     0.45534  -4.21028   1.6937 
 H                     1.80506  -3.07416   1.58242 
 C                     0.2295   -2.44152   2.95104 
 H                     0.66516  -2.9365    3.83417 
 H                     0.53815  -1.38274   2.9704 
 H                    -0.86798  -2.47387   3.06182 
 Sn                    2.88615  -0.1969   -0.02535 
 Cl                    4.1071    0.39366  -2.06853 
 Cl                    4.06158   1.25825   1.57329 
 Cl                    4.14859  -2.25299   0.42821 
 C                     1.62317   4.40926  -1.6641 
 H                     2.58323   4.62572  -2.1606 
 H                     0.8343    4.52058  -2.42309 
 H                     1.46887   5.17958  -0.89426 
 H                     2.54867   2.87996  -0.42989 
 C                    -1.89781   0.04232  -0.03616 
 C                    -2.64256   0.00934   1.15644 
 C                    -2.60688   0.10373  -1.2488 
 C                    -4.04375   0.03402   1.14745 
 H                    -2.13271  -0.03734   2.12312 
 C                    -4.00755   0.13036  -1.27811 
 H                    -2.07038   0.12676  -2.20195 
 C                    -4.71678   0.09421  -0.07507 
 H                    -4.60069   0.00966   2.08683 
 H                    -4.53687   0.17643  -2.23232 
 Br                   -6.63218   0.12797  -0.10538 
 
 NAtoms=     60 NQM=       60 NQMF=       0 NMMI=      0 NMMIF=      0
                NMic=       0 NMicF=      0.
                    Isotopes and Nuclear Properties:
 (Nuclear quadrupole moments (NQMom) in fm**2, nuclear magnetic moments (NMagM)
  in nuclear magnetons)

  Atom         1           2           3           4           5           6           7           8           9          10
 IAtWgt=         195          31          31          12           1           1          12           1           1           1
 AtmWgt= 194.9648000  30.9737634  30.9737634  12.0000000   1.0078250   1.0078250  12.0000000   1.0078250   1.0078250   1.0078250
 NucSpn=           1           1           1           0           1           1           0           1           1           1
 AtZEff=   0.0000000   0.0000000   0.0000000   0.0000000   0.0000000   0.0000000   0.0000000   0.0000000   0.0000000   0.0000000
 NQMom=    0.0000000   0.0000000   0.0000000   0.0000000   0.0000000   0.0000000   0.0000000   0.0000000   0.0000000   0.0000000
 NMagM=    0.6095000   1.1316000   1.1316000   0.0000000   2.7928460   2.7928460   0.0000000   2.7928460   2.7928460   2.7928460
 AtZNuc=  78.0000000  15.0000000  15.0000000   6.0000000   1.0000000   1.0000000   6.0000000   1.0000000   1.0000000   1.0000000

  Atom        11          12          13          14          15          16          17          18          19          20
 IAtWgt=          12           1          12           1           1          12           1           1           1          12
 AtmWgt=  12.0000000   1.0078250  12.0000000   1.0078250   1.0078250  12.0000000   1.0078250   1.0078250   1.0078250  12.0000000
 NucSpn=           0           1           0           1           1           0           1           1           1           0
 AtZEff=   0.0000000   0.0000000   0.0000000   0.0000000   0.0000000   0.0000000   0.0000000   0.0000000   0.0000000   0.0000000
 NQMom=    0.0000000   0.0000000   0.0000000   0.0000000   0.0000000   0.0000000   0.0000000   0.0000000   0.0000000   0.0000000
 NMagM=    0.0000000   2.7928460   0.0000000   2.7928460   2.7928460   0.0000000   2.7928460   2.7928460   2.7928460   0.0000000
 AtZNuc=   6.0000000   1.0000000   6.0000000   1.0000000   1.0000000   6.0000000   1.0000000   1.0000000   1.0000000   6.0000000

  Atom        21          22          23          24          25          26          27          28          29          30
 IAtWgt=           1           1          12           1           1           1          12           1           1          12
 AtmWgt=   1.0078250   1.0078250  12.0000000   1.0078250   1.0078250   1.0078250  12.0000000   1.0078250   1.0078250  12.0000000
 NucSpn=           1           1           0           1           1           1           0           1           1           0
 AtZEff=   0.0000000   0.0000000   0.0000000   0.0000000   0.0000000   0.0000000   0.0000000   0.0000000   0.0000000   0.0000000
 NQMom=    0.0000000   0.0000000   0.0000000   0.0000000   0.0000000   0.0000000   0.0000000   0.0000000   0.0000000   0.0000000
 NMagM=    2.7928460   2.7928460   0.0000000   2.7928460   2.7928460   2.7928460   0.0000000   2.7928460   2.7928460   0.0000000
 AtZNuc=   1.0000000   1.0000000   6.0000000   1.0000000   1.0000000   1.0000000   6.0000000   1.0000000   1.0000000   6.0000000

  Atom        31          32          33          34          35          36          37          38          39          40
 IAtWgt=           1           1           1          12           1           1          12           1           1           1
 AtmWgt=   1.0078250   1.0078250   1.0078250  12.0000000   1.0078250   1.0078250  12.0000000   1.0078250   1.0078250   1.0078250
 NucSpn=           1           1           1           0           1           1           0           1           1           1
 AtZEff=   0.0000000   0.0000000   0.0000000   0.0000000   0.0000000   0.0000000   0.0000000   0.0000000   0.0000000   0.0000000
 NQMom=    0.0000000   0.0000000   0.0000000   0.0000000   0.0000000   0.0000000   0.0000000   0.0000000   0.0000000   0.0000000
 NMagM=    2.7928460   2.7928460   2.7928460   0.0000000   2.7928460   2.7928460   0.0000000   2.7928460   2.7928460   2.7928460
 AtZNuc=   1.0000000   1.0000000   1.0000000   6.0000000   1.0000000   1.0000000   6.0000000   1.0000000   1.0000000   1.0000000

  Atom        41          42          43          44          45          46          47          48          49          50
 IAtWgt=         118          35          35          35          12           1           1           1           1          12
 AtmWgt= 117.9018000  34.9688527  34.9688527  34.9688527  12.0000000   1.0078250   1.0078250   1.0078250   1.0078250  12.0000000
 NucSpn=           0           3           3           3           0           1           1           1           1           0
 AtZEff=   0.0000000   0.0000000   0.0000000   0.0000000   0.0000000   0.0000000   0.0000000   0.0000000   0.0000000   0.0000000
 NQMom=    0.0000000  -8.1650000  -8.1650000  -8.1650000   0.0000000   0.0000000   0.0000000   0.0000000   0.0000000   0.0000000
 NMagM=    0.0000000   0.8218740   0.8218740   0.8218740   0.0000000   2.7928460   2.7928460   2.7928460   2.7928460   0.0000000
 AtZNuc=  50.0000000  17.0000000  17.0000000  17.0000000   6.0000000   1.0000000   1.0000000   1.0000000   1.0000000   6.0000000

  Atom        51          52          53          54          55          56          57          58          59          60
 IAtWgt=          12          12          12           1          12           1          12           1           1          79
 AtmWgt=  12.0000000  12.0000000  12.0000000   1.0078250  12.0000000   1.0078250  12.0000000   1.0078250   1.0078250  78.9183361
 NucSpn=           0           0           0           1           0           1           0           1           1           3
 AtZEff=   0.0000000   0.0000000   0.0000000   0.0000000   0.0000000   0.0000000   0.0000000   0.0000000   0.0000000   0.0000000
 NQMom=    0.0000000   0.0000000   0.0000000   0.0000000   0.0000000   0.0000000   0.0000000   0.0000000   0.0000000  31.3000000
 NMagM=    0.0000000   0.0000000   0.0000000   2.7928460   0.0000000   2.7928460   0.0000000   2.7928460   2.7928460   2.1063990
 AtZNuc=   6.0000000   6.0000000   6.0000000   1.0000000   6.0000000   1.0000000   6.0000000   1.0000000   1.0000000  35.0000000
 Leave Link  101 at Mon Nov  4 05:56:15 2019, MaxMem=   939524096 cpu:         0.6
 (Enter /scr/programas/g09/l202.exe)
 Stoichiometry    C18H34BrCl3P2PtSn
 Framework group  C1[X(C18H34BrCl3P2PtSn)]
 Deg. of freedom   174
 Full point group                 C1      NOp   1
 Largest Abelian subgroup         C1      NOp   1
 Largest concise Abelian subgroup C1      NOp   1
                         Standard orientation:                         
 ---------------------------------------------------------------------
 Center     Atomic      Atomic             Coordinates (Angstroms)
 Number     Number       Type             X           Y           Z
 ---------------------------------------------------------------------
      1         78           0        0.152674   -0.052431   -0.022822
      2         15           0        0.239951    2.358901   -0.067630
      3         15           0       -0.011433   -2.442832    0.109505
      4          6           0        0.528936    2.967459    1.659224
      5          1           0        1.388990    2.385984    2.025898
      6          1           0       -0.344120    2.628634    2.240528
      7          6           0        0.779931    4.464922    1.859186
      8          1           0       -0.038490    5.088074    1.465606
      9          1           0        0.873242    4.685077    2.935396
     10          1           0        1.716509    4.787161    1.379224
     11          6           0        1.670941    2.990793   -1.087273
     12          1           0        1.811005    2.268017   -1.904786
     13          6           0       -1.231395    3.298406   -0.709137
     14          1           0       -0.851797    4.280814   -1.027820
     15          1           0       -1.553159    2.776511   -1.624554
     16          6           0       -2.414470    3.498844    0.242428
     17          1           0       -3.201367    4.072441   -0.273124
     18          1           0       -2.853602    2.549872    0.572307
     19          1           0       -2.129281    4.071165    1.137808
     20          6           0        0.885147   -3.326971   -1.247395
     21          1           0        0.761661   -4.409283   -1.078924
     22          1           0        1.955432   -3.113217   -1.104370
     23          6           0        0.425605   -2.930768   -2.652977
     24          1           0       -0.636804   -3.169781   -2.821466
     25          1           0        0.560299   -1.850422   -2.825455
     26          1           0        1.009920   -3.471404   -3.412971
     27          6           0       -1.736181   -3.132005    0.068065
     28          1           0       -2.232835   -2.747674    0.973935
     29          1           0       -2.254463   -2.650651   -0.776274
     30          6           0       -1.861981   -4.656019   -0.014217
     31          1           0       -2.921831   -4.945331    0.062816
     32          1           0       -1.482964   -5.053520   -0.967954
     33          1           0       -1.327425   -5.167135    0.801912
     34          6           0        0.707721   -3.137347    1.672598
     35          1           0        0.455338   -4.210278    1.693700
     36          1           0        1.805055   -3.074157    1.582420
     37          6           0        0.229502   -2.441523    2.951038
     38          1           0        0.665160   -2.936501    3.834171
     39          1           0        0.538153   -1.382735    2.970399
     40          1           0       -0.867984   -2.473872    3.061821
     41         50           0        2.886152   -0.196903   -0.025349
     42         17           0        4.107095    0.393656   -2.068532
     43         17           0        4.061583    1.258247    1.573293
     44         17           0        4.148588   -2.252986    0.428207
     45          6           0        1.623173    4.409258   -1.664095
     46          1           0        2.583226    4.625716   -2.160605
     47          1           0        0.834303    4.520583   -2.423086
     48          1           0        1.468871    5.179581   -0.894258
     49          1           0        2.548665    2.879964   -0.429891
     50          6           0       -1.897806    0.042322   -0.036162
     51          6           0       -2.642563    0.009337    1.156442
     52          6           0       -2.606882    0.103726   -1.248804
     53          6           0       -4.043745    0.034023    1.147449
     54          1           0       -2.132707   -0.037343    2.123123
     55          6           0       -4.007551    0.130358   -1.278113
     56          1           0       -2.070381    0.126762   -2.201951
     57          6           0       -4.716776    0.094207   -0.075069
     58          1           0       -4.600690    0.009662    2.086826
     59          1           0       -4.536872    0.176434   -2.232321
     60         35           0       -6.632177    0.127967   -0.105379
 ---------------------------------------------------------------------
 Rotational constants (GHZ):      0.1399944      0.0608403      0.0491558
 Leave Link  202 at Mon Nov  4 05:56:15 2019, MaxMem=   939524096 cpu:         0.0
 (Enter /scr/programas/g09/l301.exe)
 General basis read from cards:  (5D, 7F)
 Centers:       5      6      8      9     10     12     14     15     17     18
 Centers:      19     21     22     24     25     26     28     29     31     32
 Centers:      33     35     36     38     39     40     46     47     48     49
 Centers:      54     56     58     59
 S 5 1.00
     Exponent=  2.8295215633D+02 Coefficients=  4.3000000000D-04
     Exponent=  8.7062201949D+01 Coefficients=  5.1000000000D-04
     Exponent=  2.6788369830D+01 Coefficients=  6.1600000000D-03
     Exponent=  8.2425753324D+00 Coefficients=  1.3030000000D-02
     Exponent=  2.5361770254D+00 Coefficients=  9.9490000000D-02
 S 1 1.00
     Exponent=  7.8036216165D-01 Coefficients=  1.0000000000D+00
 S 1 1.00
     Exponent=  2.4011143435D-01 Coefficients=  1.0000000000D+00
 P 1 1.00
     Exponent=  8.8150000000D-01 Coefficients=  1.0000000000D+00
 P 1 1.00
     Exponent=  1.7989200000D-01 Coefficients=  1.0000000000D+00
 ****
 Centers:       4      7     11     13     16     20     23     27     30     34
 Centers:      37     45     50     51     52     53     55     57
 S 6 1.00
     Exponent=  8.8461235339D+03 Coefficients=  5.3000000000D-04
     Exponent=  2.9487078446D+03 Coefficients=  7.7000000000D-04
     Exponent=  9.8290261488D+02 Coefficients=  4.0500000000D-03
     Exponent=  3.2763420496D+02 Coefficients=  1.4030000000D-02
     Exponent=  1.0921140165D+02 Coefficients=  5.3450000000D-02
     Exponent=  3.6403800551D+01 Coefficients=  1.7027000000D-01
 S 1 1.00
     Exponent=  1.2134600184D+01 Coefficients=  1.0000000000D+00
 S 1 1.00
     Exponent=  4.0448667279D+00 Coefficients=  1.0000000000D+00
 S 1 1.00
     Exponent=  1.3482889093D+00 Coefficients=  1.0000000000D+00
 S 1 1.00
     Exponent=  4.4942963643D-01 Coefficients=  1.0000000000D+00
 S 1 1.00
     Exponent=  1.4980987881D-01 Coefficients=  1.0000000000D+00
 P 4 1.00
     Exponent=  3.7294093393D+01 Coefficients=  3.9600000000D-03
     Exponent=  1.1475105659D+01 Coefficients=  1.8890000000D-02
     Exponent=  3.5308017414D+00 Coefficients=  9.4610000000D-02
     Exponent=  1.0864005358D+00 Coefficients=  3.1889000000D-01
 P 1 1.00
     Exponent=  3.3427708794D-01 Coefficients=  1.0000000000D+00
 P 1 1.00
     Exponent=  1.0285448860D-01 Coefficients=  1.0000000000D+00
 D 1 1.00
     Exponent=  4.7750000000D-01 Coefficients=  1.0000000000D+00
 D 1 1.00
     Exponent=  1.1998000000D-01 Coefficients=  1.0000000000D+00
 ****
 Centers:       2      3
 S 7 1.00
     Exponent=  5.9538004301D+04 Coefficients=  9.5000000000D-04
     Exponent=  2.1650183382D+04 Coefficients=  6.1000000000D-04
     Exponent=  7.8727939572D+03 Coefficients=  3.7500000000D-03
     Exponent=  2.8628341663D+03 Coefficients=  9.6300000000D-03
     Exponent=  1.0410306059D+03 Coefficients=  3.2430000000D-02
     Exponent=  3.7855658397D+02 Coefficients=  9.9500000000D-02
     Exponent=  1.3765693962D+02 Coefficients=  2.6570000000D-01
 S 1 1.00
     Exponent=  5.0057068954D+01 Coefficients=  1.0000000000D+00
 S 1 1.00
     Exponent=  1.8202570529D+01 Coefficients=  1.0000000000D+00
 S 1 1.00
     Exponent=  6.6191165560D+00 Coefficients=  1.0000000000D+00
 S 1 1.00
     Exponent=  2.4069514749D+00 Coefficients=  1.0000000000D+00
 S 1 1.00
     Exponent=  8.7525508178D-01 Coefficients=  1.0000000000D+00
 S 1 1.00
     Exponent=  3.1827457519D-01 Coefficients=  1.0000000000D+00
 S 1 1.00
     Exponent=  1.1573620916D-01 Coefficients=  1.0000000000D+00
 S 1 1.00
     Exponent=  4.2085894240D-02 Coefficients=  1.0000000000D+00
 P 5 1.00
     Exponent=  4.8799672315D+02 Coefficients=  2.1600000000D-03
     Exponent=  1.6266557438D+02 Coefficients=  9.7900000000D-03
     Exponent=  5.4221858128D+01 Coefficients=  5.4850000000D-02
     Exponent=  1.8073952709D+01 Coefficients=  2.1770000000D-01
     Exponent=  6.0246509031D+00 Coefficients=  4.8978000000D-01
 P 1 1.00
     Exponent=  2.0082169677D+00 Coefficients=  1.0000000000D+00
 P 1 1.00
     Exponent=  6.6940565590D-01 Coefficients=  1.0000000000D+00
 P 1 1.00
     Exponent=  2.2313521863D-01 Coefficients=  1.0000000000D+00
 P 1 1.00
     Exponent=  7.4378406211D-02 Coefficients=  1.0000000000D+00
 P 1 1.00
     Exponent=  2.4792802070D-02 Coefficients=  1.0000000000D+00
 D 1 1.00
     Exponent=  3.5395000000D-01 Coefficients=  1.0000000000D+00
 D 1 1.00
     Exponent=  8.9098000000D-02 Coefficients=  1.0000000000D+00
 ****
 Centers:      42     43     44
 S 7 1.00
     Exponent=  7.7142817164D+04 Coefficients=  1.0600000000D-03
     Exponent=  2.8051933514D+04 Coefficients=  6.4000000000D-04
     Exponent=  1.0200703096D+04 Coefficients=  3.9600000000D-03
     Exponent=  3.7093465804D+03 Coefficients=  9.8300000000D-03
     Exponent=  1.3488533020D+03 Coefficients=  3.2690000000D-02
     Exponent=  4.9049210981D+02 Coefficients=  9.9520000000D-02
     Exponent=  1.7836076720D+02 Coefficients=  2.6555000000D-01
 S 1 1.00
     Exponent=  6.4858460801D+01 Coefficients=  1.0000000000D+00
 S 1 1.00
     Exponent=  2.3584894837D+01 Coefficients=  1.0000000000D+00
 S 1 1.00
     Exponent=  8.5763253951D+00 Coefficients=  1.0000000000D+00
 S 1 1.00
     Exponent=  3.1186637801D+00 Coefficients=  1.0000000000D+00
 S 1 1.00
     Exponent=  1.1340595564D+00 Coefficients=  1.0000000000D+00
 S 1 1.00
     Exponent=  4.1238529323D-01 Coefficients=  1.0000000000D+00
 S 1 1.00
     Exponent=  1.4995828845D-01 Coefficients=  1.0000000000D+00
 S 1 1.00
     Exponent=  5.4530286708D-02 Coefficients=  1.0000000000D+00
 P 5 1.00
     Exponent=  6.9498536057D+02 Coefficients=  2.0000000000D-03
     Exponent=  2.3166178686D+02 Coefficients=  8.9500000000D-03
     Exponent=  7.7220595619D+01 Coefficients=  5.1130000000D-02
     Exponent=  2.5740198540D+01 Coefficients=  2.1011000000D-01
     Exponent=  8.5800661799D+00 Coefficients=  4.9738000000D-01
 P 1 1.00
     Exponent=  2.8600220600D+00 Coefficients=  1.0000000000D+00
 P 1 1.00
     Exponent=  9.5334068665D-01 Coefficients=  1.0000000000D+00
 P 1 1.00
     Exponent=  3.1778022888D-01 Coefficients=  1.0000000000D+00
 P 1 1.00
     Exponent=  1.0592674296D-01 Coefficients=  1.0000000000D+00
 P 1 1.00
     Exponent=  3.5308914320D-02 Coefficients=  1.0000000000D+00
 D 1 1.00
     Exponent=  5.5696000000D-01 Coefficients=  1.0000000000D+00
 D 1 1.00
     Exponent=  1.5619100000D-01 Coefficients=  1.0000000000D+00
 ****
 Centers:      60
 S 7 1.00
     Exponent=  3.4867099512D+05 Coefficients=  2.4100000000D-03
     Exponent=  1.3946839805D+05 Coefficients=  1.2000000000D-04
     Exponent=  5.5787359218D+04 Coefficients=  5.8500000000D-03
     Exponent=  2.2314943687D+04 Coefficients=  8.2100000000D-03
     Exponent=  8.9259774750D+03 Coefficients=  2.4090000000D-02
     Exponent=  3.5703909900D+03 Coefficients=  5.7250000000D-02
     Exponent=  1.4281563960D+03 Coefficients=  1.4467000000D-01
 S 1 1.00
     Exponent=  5.7126255840D+02 Coefficients=  1.0000000000D+00
 S 1 1.00
     Exponent=  2.2850502336D+02 Coefficients=  1.0000000000D+00
 S 1 1.00
     Exponent=  9.1402009344D+01 Coefficients=  1.0000000000D+00
 S 1 1.00
     Exponent=  3.6560803737D+01 Coefficients=  1.0000000000D+00
 S 1 1.00
     Exponent=  1.4624321495D+01 Coefficients=  1.0000000000D+00
 S 1 1.00
     Exponent=  5.8497285980D+00 Coefficients=  1.0000000000D+00
 S 1 1.00
     Exponent=  2.3398914392D+00 Coefficients=  1.0000000000D+00
 S 1 1.00
     Exponent=  9.3595657568D-01 Coefficients=  1.0000000000D+00
 S 1 1.00
     Exponent=  3.7438263027D-01 Coefficients=  1.0000000000D+00
 S 1 1.00
     Exponent=  1.4975305211D-01 Coefficients=  1.0000000000D+00
 S 1 1.00
     Exponent=  5.9901220843D-02 Coefficients=  1.0000000000D+00
 P 5 1.00
     Exponent=  4.2715043612D+03 Coefficients=  2.0900000000D-03
     Exponent=  1.5532743132D+03 Coefficients=  5.5700000000D-03
     Exponent=  5.6482702297D+02 Coefficients=  3.0250000000D-02
     Exponent=  2.0539164472D+02 Coefficients=  1.2196000000D-01
     Exponent=  7.4687870806D+01 Coefficients=  3.7861000000D-01
 P 1 1.00
     Exponent=  2.7159225748D+01 Coefficients=  1.0000000000D+00
 P 1 1.00
     Exponent=  9.8760820901D+00 Coefficients=  1.0000000000D+00
 P 1 1.00
     Exponent=  3.5913025782D+00 Coefficients=  1.0000000000D+00
 P 1 1.00
     Exponent=  1.3059282103D+00 Coefficients=  1.0000000000D+00
 P 1 1.00
     Exponent=  4.7488298555D-01 Coefficients=  1.0000000000D+00
 P 1 1.00
     Exponent=  1.7268472202D-01 Coefficients=  1.0000000000D+00
 P 1 1.00
     Exponent=  6.2794444370D-02 Coefficients=  1.0000000000D+00
 P 1 1.00
     Exponent=  2.2834343407D-02 Coefficients=  1.0000000000D+00
 D 4 1.00
     Exponent=  1.5776624282D+02 Coefficients=  7.9800000000D-03
     Exponent=  5.2588747607D+01 Coefficients=  4.9870000000D-02
     Exponent=  1.7529582536D+01 Coefficients=  2.2405000000D-01
     Exponent=  5.8431941786D+00 Coefficients=  4.4250000000D-01
 D 1 1.00
     Exponent=  1.9477313929D+00 Coefficients=  1.0000000000D+00
 D 1 1.00
     Exponent=  6.4924379762D-01 Coefficients=  1.0000000000D+00
 F 1 1.00
     Exponent=  1.6480000000D+00 Coefficients=  1.0000000000D+00
 F 1 1.00
     Exponent=  4.5490000000D-01 Coefficients=  1.0000000000D+00
 ****
 Centers:      41
 S 8 1.00
     Exponent=  7.5448214551D+05 Coefficients=  4.4300000000D-03
     Exponent=  3.3532539800D+05 Coefficients=  1.9800000000D-03
     Exponent=  1.4903351022D+05 Coefficients=  9.0500000000D-03
     Exponent=  6.6237115655D+04 Coefficients=  4.8700000000D-03
     Exponent=  2.9438718069D+04 Coefficients=  2.0770000000D-02
     Exponent=  1.3083874697D+04 Coefficients=  3.2900000000D-02
     Exponent=  5.8150554210D+03 Coefficients=  7.7010000000D-02
     Exponent=  2.5844690760D+03 Coefficients=  1.5160000000D-01
 S 1 1.00
     Exponent=  1.1486529227D+03 Coefficients=  1.0000000000D+00
 S 1 1.00
     Exponent=  5.1051241008D+02 Coefficients=  1.0000000000D+00
 S 1 1.00
     Exponent=  2.2689440448D+02 Coefficients=  1.0000000000D+00
 S 1 1.00
     Exponent=  1.0084195755D+02 Coefficients=  1.0000000000D+00
 S 1 1.00
     Exponent=  4.4818647798D+01 Coefficients=  1.0000000000D+00
 S 1 1.00
     Exponent=  1.9919399021D+01 Coefficients=  1.0000000000D+00
 S 1 1.00
     Exponent=  8.8530662317D+00 Coefficients=  1.0000000000D+00
 S 1 1.00
     Exponent=  3.9346961030D+00 Coefficients=  1.0000000000D+00
 S 1 1.00
     Exponent=  1.7487538235D+00 Coefficients=  1.0000000000D+00
 S 1 1.00
     Exponent=  7.7722392158D-01 Coefficients=  1.0000000000D+00
 S 1 1.00
     Exponent=  3.4543285403D-01 Coefficients=  1.0000000000D+00
 S 1 1.00
     Exponent=  1.5352571290D-01 Coefficients=  1.0000000000D+00
 S 1 1.00
     Exponent=  6.8233650180D-02 Coefficients=  1.0000000000D+00
 S 1 1.00
     Exponent=  1.3478251887D-02 Coefficients=  1.0000000000D+00
 P 5 1.00
     Exponent=  1.0090658304D+04 Coefficients=  2.7500000000D-03
     Exponent=  4.0362633217D+03 Coefficients=  4.1800000000D-03
     Exponent=  1.6145053287D+03 Coefficients=  2.0890000000D-02
     Exponent=  6.4580213147D+02 Coefficients=  7.1370000000D-02
     Exponent=  2.5832085259D+02 Coefficients=  2.2613000000D-01
 P 1 1.00
     Exponent=  1.0332834104D+02 Coefficients=  1.0000000000D+00
 P 1 1.00
     Exponent=  4.1331336414D+01 Coefficients=  1.0000000000D+00
 P 1 1.00
     Exponent=  1.6532534566D+01 Coefficients=  1.0000000000D+00
 P 1 1.00
     Exponent=  6.6130138263D+00 Coefficients=  1.0000000000D+00
 P 1 1.00
     Exponent=  2.6452055305D+00 Coefficients=  1.0000000000D+00
 P 1 1.00
     Exponent=  1.0580822122D+00 Coefficients=  1.0000000000D+00
 P 1 1.00
     Exponent=  4.2323288488D-01 Coefficients=  1.0000000000D+00
 P 1 1.00
     Exponent=  1.6929315395D-01 Coefficients=  1.0000000000D+00
 P 1 1.00
     Exponent=  6.7717261581D-02 Coefficients=  1.0000000000D+00
 P 1 1.00
     Exponent=  2.7086904632D-02 Coefficients=  1.0000000000D+00
 P 1 1.00
     Exponent=  1.0834761853D-02 Coefficients=  1.0000000000D+00
 D 4 1.00
     Exponent=  5.5430250651D+02 Coefficients=  4.3700000000D-03
     Exponent=  2.0156454782D+02 Coefficients=  2.5110000000D-02
     Exponent=  7.3296199207D+01 Coefficients=  1.3316000000D-01
     Exponent=  2.6653163348D+01 Coefficients=  3.8900000000D-01
 D 1 1.00
     Exponent=  9.6920593993D+00 Coefficients=  1.0000000000D+00
 D 1 1.00
     Exponent=  3.5243852361D+00 Coefficients=  1.0000000000D+00
 D 1 1.00
     Exponent=  1.2815946313D+00 Coefficients=  1.0000000000D+00
 D 1 1.00
     Exponent=  4.6603441139D-01 Coefficients=  1.0000000000D+00
 D 1 1.00
     Exponent=  1.6946705869D-01 Coefficients=  1.0000000000D+00
 F 1 1.00
     Exponent=  1.3140000000D+00 Coefficients=  1.0000000000D+00
 F 1 1.00
     Exponent=  1.9993000000D-01 Coefficients=  1.0000000000D+00
 ****
 Centers:       1
 S 9 1.00
     Exponent=  2.1644816090D+06 Coefficients=  1.2320000000D-02
     Exponent=  1.0822408045D+06 Coefficients=  1.2970000000D-02
     Exponent=  5.4112040224D+05 Coefficients=  2.6370000000D-02
     Exponent=  2.7056020112D+05 Coefficients=  9.0400000000D-03
     Exponent=  1.3528010056D+05 Coefficients=  3.4980000000D-02
     Exponent=  6.7640050280D+04 Coefficients=  1.2220000000D-02
     Exponent=  3.3820025140D+04 Coefficients=  6.0520000000D-02
     Exponent=  1.6910012570D+04 Coefficients=  6.4930000000D-02
     Exponent=  8.4550062850D+03 Coefficients=  1.3819000000D-01
 S 1 1.00
     Exponent=  4.2275031425D+03 Coefficients=  1.0000000000D+00
 S 1 1.00
     Exponent=  2.1137515713D+03 Coefficients=  1.0000000000D+00
 S 1 1.00
     Exponent=  1.0568757856D+03 Coefficients=  1.0000000000D+00
 S 1 1.00
     Exponent=  5.2843789281D+02 Coefficients=  1.0000000000D+00
 S 1 1.00
     Exponent=  2.6421894641D+02 Coefficients=  1.0000000000D+00
 S 1 1.00
     Exponent=  1.3210947320D+02 Coefficients=  1.0000000000D+00
 S 1 1.00
     Exponent=  6.6054736602D+01 Coefficients=  1.0000000000D+00
 S 1 1.00
     Exponent=  3.3027368301D+01 Coefficients=  1.0000000000D+00
 S 1 1.00
     Exponent=  1.6513684150D+01 Coefficients=  1.0000000000D+00
 S 1 1.00
     Exponent=  8.2568420752D+00 Coefficients=  1.0000000000D+00
 S 1 1.00
     Exponent=  4.1284210376D+00 Coefficients=  1.0000000000D+00
 S 1 1.00
     Exponent=  2.0642105188D+00 Coefficients=  1.0000000000D+00
 S 1 1.00
     Exponent=  1.0321052594D+00 Coefficients=  1.0000000000D+00
 S 1 1.00
     Exponent=  5.1605262970D-01 Coefficients=  1.0000000000D+00
 S 1 1.00
     Exponent=  2.5802631485D-01 Coefficients=  1.0000000000D+00
 S 1 1.00
     Exponent=  1.2901315743D-01 Coefficients=  1.0000000000D+00
 S 1 1.00
     Exponent=  6.4506578713D-02 Coefficients=  1.0000000000D+00
 P 7 1.00
     Exponent=  3.2357915258D+04 Coefficients=  5.0200000000D-03
     Exponent=  1.4381295670D+04 Coefficients=  2.0200000000D-03
     Exponent=  6.3916869645D+03 Coefficients=  1.8070000000D-02
     Exponent=  2.8407497620D+03 Coefficients=  3.6620000000D-02
     Exponent=  1.2625554498D+03 Coefficients=  1.1172000000D-01
     Exponent=  5.6113575545D+02 Coefficients=  2.5586000000D-01
     Exponent=  2.4939366909D+02 Coefficients=  4.2608000000D-01
 P 1 1.00
     Exponent=  1.1084163071D+02 Coefficients=  1.0000000000D+00
 P 1 1.00
     Exponent=  4.9262946981D+01 Coefficients=  1.0000000000D+00
 P 1 1.00
     Exponent=  2.1894643103D+01 Coefficients=  1.0000000000D+00
 P 1 1.00
     Exponent=  9.7309524900D+00 Coefficients=  1.0000000000D+00
 P 1 1.00
     Exponent=  4.3248677733D+00 Coefficients=  1.0000000000D+00
 P 1 1.00
     Exponent=  1.9221634548D+00 Coefficients=  1.0000000000D+00
 P 1 1.00
     Exponent=  8.5429486881D-01 Coefficients=  1.0000000000D+00
 P 1 1.00
     Exponent=  3.7968660836D-01 Coefficients=  1.0000000000D+00
 P 1 1.00
     Exponent=  1.6874960372D-01 Coefficients=  1.0000000000D+00
 P 1 1.00
     Exponent=  7.4999823874D-02 Coefficients=  1.0000000000D+00
 P 1 1.00
     Exponent=  3.3333255055D-02 Coefficients=  1.0000000000D+00
 D 5 1.00
     Exponent=  1.9119003508D+03 Coefficients=  4.3300000000D-03
     Exponent=  7.6476014031D+02 Coefficients=  1.7780000000D-02
     Exponent=  3.0590405613D+02 Coefficients=  8.9710000000D-02
     Exponent=  1.2236162245D+02 Coefficients=  3.1123000000D-01
     Exponent=  4.8944648980D+01 Coefficients=  5.3206000000D-01
 D 1 1.00
     Exponent=  1.9577859592D+01 Coefficients=  1.0000000000D+00
 D 1 1.00
     Exponent=  7.8311438368D+00 Coefficients=  1.0000000000D+00
 D 1 1.00
     Exponent=  3.1324575347D+00 Coefficients=  1.0000000000D+00
 D 1 1.00
     Exponent=  1.2529830139D+00 Coefficients=  1.0000000000D+00
 D 1 1.00
     Exponent=  5.0119320556D-01 Coefficients=  1.0000000000D+00
 D 1 1.00
     Exponent=  2.0047728222D-01 Coefficients=  1.0000000000D+00
 D 1 1.00
     Exponent=  8.0190912889D-02 Coefficients=  1.0000000000D+00
 D 1 1.00
     Exponent=  3.2076365156D-02 Coefficients=  1.0000000000D+00
 F 4 1.00
     Exponent=  8.2289680979D+01 Coefficients=  6.1870000000D-02
     Exponent=  2.9923520356D+01 Coefficients=  2.4823000000D-01
     Exponent=  1.0881280130D+01 Coefficients=  4.9956000000D-01
     Exponent=  3.9568291380D+00 Coefficients=  4.0380000000D-01
 F 1 1.00
     Exponent=  1.4388469593D+00 Coefficients=  1.0000000000D+00
 F 1 1.00
     Exponent=  5.2321707610D-01 Coefficients=  1.0000000000D+00
 G 1 1.00
     Exponent=  2.6700000000D+00 Coefficients=  1.0000000000D+00
 G 1 1.00
     Exponent=  9.0960000000D-01 Coefficients=  1.0000000000D+00
 ****
 Ernie: Thresh=  0.10000D-02 Tol=  0.10000D-05 Strict=F.
 There are  1339 symmetry adapted cartesian basis functions of A   symmetry.
 There are  1242 symmetry adapted basis functions of A   symmetry.
  1242 basis functions,  1970 primitive gaussians,  1339 cartesian basis functions
   193 alpha electrons      193 beta electrons
       nuclear repulsion energy      8518.4479576948 Hartrees.
 IExCor= 1009 DFT=T Ex=PBE Corr=PBE ExCW=0 ScaHFX=  0.000000
 ScaDFX=  1.000000  1.000000  1.000000  1.000000 ScalE2=  1.000000  1.000000
 IRadAn=      0 IRanWt=     -1 IRanGd=            0 ICorTp=0 IEmpDi=  4
 NAtoms=   60 NActive=   60 NUniq=   60 SFac= 1.00D+00 NAtFMM=   60 NAOKFM=T Big=T
 Integral buffers will be    131072 words long.
 Raffenetti 2 integral format.
 Two-electron integral symmetry is turned on.
 ------------------------------------------------------------------------------
 Polarizable Continuum Model (PCM)
 =================================
 Model                : PCM (using non-symmetric T matrix).
 Atomic radii         : UFF (Universal Force Field).
 Polarization charges : Total charges.
 Charge compensation  : None.
 Solution method      : On-the-fly selection.
 Cavity type          : Scaled VdW (van der Waals Surface) (Alpha=1.100).
 Cavity algorithm     : GePol (No added spheres)
                        Default sphere list used, NSphG=   60.
                        Lebedev-Laikov grids with approx.  5.0 points / Ang**2.
                        Smoothing algorithm: Karplus/York (Gamma=1.0000).
                        Polarization charges: spherical gaussians, with
                                              point-specific exponents (IZeta= 3).
                        Self-potential: point-specific (ISelfS= 7).
                        Self-field    : sphere-specific E.n sum rule (ISelfD= 2).
 Solvent              : Dichloromethane, Eps=   8.930000 Eps(inf)=   2.028346
 ------------------------------------------------------------------------------
 GePol: Number of generator spheres                  =      60
 GePol: Total number of spheres                      =      60
 GePol: Number of exposed spheres                    =      60 (100.00%)
 GePol: Number of points                             =    4365
 GePol: Average weight of points                     =       0.13
 GePol: Minimum weight of points                     =   0.57D-10
 GePol: Maximum weight of points                     =    0.21838
 GePol: Number of points with low weight             =     278
 GePol: Fraction of low-weight points (<1% of avg)   =       6.37%
 GePol: Cavity surface area                          =    586.265 Ang**2
 GePol: Cavity volume                                =    697.414 Ang**3
 Leave Link  301 at Mon Nov  4 05:56:16 2019, MaxMem=   939524096 cpu:         1.1
 (Enter /scr/programas/g09/l302.exe)
 NPDir=0 NMtPBC=     1 NCelOv=     1 NCel=       1 NClECP=     1 NCelD=      1
         NCelK=      1 NCelE2=     1 NClLst=     1 CellRange=     0.0.
 One-electron integrals computed using PRISM.
 NBasis=  1242 RedAO= T EigKep=  2.56D-06  NBF=  1242
 NBsUse=  1242 1.00D-06 EigRej= -1.00D+00 NBFU=  1242
 Precomputing XC quadrature grid using
 IXCGrd= 4 IRadAn=           0 IRanWt=          -1 IRanGd=           0 AccXCQ= 0.00D+00.
 Defaulting to unpruned grid for atomic number  78.
 Defaulting to unpruned grid for atomic number  50.
 Generated NRdTot=       0 NPtTot=           0 NUsed=           0 NTot=          32
 NSgBfM=  1158  1158  1159  1159  1159 MxSgAt=    60 MxSgA2=    60.
 Leave Link  302 at Mon Nov  4 05:56:24 2019, MaxMem=   939524096 cpu:        33.2
 (Enter /scr/programas/g09/l308.exe)
 Leave Link  308 at Mon Nov  4 05:56:25 2019, MaxMem=   939524096 cpu:         3.0
 (Enter /scr/programas/g09/l303.exe)
 DipDrv:  MaxL=1.
 Leave Link  303 at Mon Nov  4 05:56:25 2019, MaxMem=   939524096 cpu:         1.8
 (Enter /scr/programas/g09/l401.exe)
 ExpMin= 1.08D-02 ExpMax= 2.16D+06 ExpMxC= 2.16D+06 IAcc=4 IRadAn=    199590 AccDes= 0.00D+00
 Harris functional with IExCor= 1009 and IRadAn=  199590 diagonalized for initial guess.
 HarFok:  IExCor= 1009 AccDes= 0.00D+00 IRadAn=    199590 IDoV= 1 UseB2=F ITyADJ=14
 ICtDFT=  3500011 ScaDFX=  1.000000  1.000000  1.000000  1.000000
 FoFCou: FMM=F IPFlag=           0 FMFlag=      100000 FMFlg1=        2001
         NFxFlg=           0 DoJE=T BraDBF=F KetDBF=T FulRan=T
         wScrn=  0.000000 ICntrl=     500 IOpCl=  0 I1Cent=   200000004 NGrid=           0
         NMat0=    1 NMatS0=      1 NMatT0=    0 NMatD0=    1 NMtDS0=    0 NMtDT0=    0
 Petite list used in FoFCou.
 Harris En= -28441.4775043369    
 JPrj=0 DoOrth=F DoCkMO=F.
 Leave Link  401 at Mon Nov  4 06:02:05 2019, MaxMem=   939524096 cpu:      1354.1
 (Enter /scr/programas/g09/l502.exe)
 Closed shell SCF:
 Using DIIS extrapolation, IDIIS=  1040.
 Integral symmetry usage will be decided dynamically.
 IVT=     5650777 IEndB=     5650777 NGot=   939524096 MDV=   935918580
 LenX=   935918580 LenY=   934124320
 Requested convergence on RMS density matrix=1.00D-04 within 500 cycles.
 Requested convergence on MAX density matrix=1.00D-02.
 Requested convergence on             energy=1.00D-02.
 No special actions if energy rises.
 Fock matrices will be formed incrementally for  20 cycles.

 Cycle   1  Pass 1  IDiag  1:
 FoFJK:  IHMeth= 1 ICntrl=     500 DoSepK=F KAlg= 0 I1Cent=   0 FoldK=F
 IRaf= 720000000 NMat=   1 IRICut=       1 DoRegI=T DoRafI=F ISym2E= 0.
 FoFCou: FMM=T IPFlag=           0 FMFlag=      100000 FMFlg1=        2001
         NFxFlg=           0 DoJE=T BraDBF=F KetDBF=F FulRan=T
         wScrn=  0.000000 ICntrl=     500 IOpCl=  0 I1Cent=           0 NGrid=           0
         NMat0=    1 NMatS0=      1 NMatT0=    0 NMatD0=    1 NMtDS0=    0 NMtDT0=    0
 Symmetry not used in FoFCou.
 FMM levels:  10  Number of levels for PrismC:   9
 Defaulting to unpruned grid for atomic number  78.
 Defaulting to unpruned grid for atomic number  78.
 Defaulting to unpruned grid for atomic number  78.
 Defaulting to unpruned grid for atomic number  78.
 Inv3:  Mode=1 IEnd=    57159675.
 Iteration    1 A*A^-1 deviation from unit magnitude is 1.08D-14 for   3738.
 Iteration    1 A*A^-1 deviation from orthogonality  is 1.07D-14 for   2980   2120.
 Iteration    1 A^-1*A deviation from unit magnitude is 1.05D-14 for   3738.
 Iteration    1 A^-1*A deviation from orthogonality  is 2.37D-09 for   3929   3919.
 Iteration    2 A*A^-1 deviation from unit magnitude is 1.18D-14 for   1802.
 Iteration    2 A*A^-1 deviation from orthogonality  is 1.20D-14 for   2876    300.
 Iteration    2 A^-1*A deviation from unit magnitude is 1.78D-15 for   4040.
 Iteration    2 A^-1*A deviation from orthogonality  is 7.61D-16 for   2313    257.
 E= -28421.9209832981    
 DIIS: error= 2.20D-01 at cycle   1 NSaved=   1.
 NSaved= 1 IEnMin= 1 EnMin= -28421.9209832981     IErMin= 1 ErrMin= 2.20D-01
 ErrMax= 2.20D-01  0.00D+00 EMaxC= 1.00D-01 BMatC= 3.36D+02 BMatP= 3.36D+02
 IDIUse=3 WtCom= 0.00D+00 WtEn= 1.00D+00
 Coeff-Com:  0.100D+01
 Coeff-En:   0.100D+01
 Coeff:      0.100D+01
 Gap=     0.811 Goal=   None    Shift=    0.000
 GapD=    0.811 DampG=2.000 DampE=0.125 DampFc=0.2500 IDamp=-1.
 Damping current iteration by 2.50D-01
 RMSDP=9.66D-03 MaxDP=1.31D+00              OVMax= 7.19D-01

 Cycle   2  Pass 1  IDiag  1:
 RMSU=  2.38D-03    CP:  1.03D+00
 E= -28423.7070545932     Delta-E=       -1.786071295042 Rises=F Damp=T
 DIIS: error= 1.57D-01 at cycle   2 NSaved=   2.
 NSaved= 2 IEnMin= 2 EnMin= -28423.7070545932     IErMin= 2 ErrMin= 1.57D-01
 ErrMax= 1.57D-01  0.00D+00 EMaxC= 1.00D-01 BMatC= 1.62D+02 BMatP= 3.36D+02
 IDIUse=3 WtCom= 0.00D+00 WtEn= 1.00D+00
 Coeff-Com: -0.201D+01 0.301D+01
 Coeff-En:   0.000D+00 0.100D+01
 Coeff:      0.000D+00 0.100D+01
 Gap=     0.082 Goal=   None    Shift=    0.000
 RMSDP=2.75D-03 MaxDP=3.28D-01 DE=-1.79D+00 OVMax= 7.95D-01

 Cycle   3  Pass 1  IDiag  1:
 RMSU=  2.50D-03    CP:  9.76D-01  6.08D-01
 E= -28425.8511751999     Delta-E=       -2.144120606696 Rises=F Damp=F
 DIIS: error= 4.78D-02 at cycle   3 NSaved=   3.
 NSaved= 3 IEnMin= 3 EnMin= -28425.8511751999     IErMin= 3 ErrMin= 4.78D-02
 ErrMax= 4.78D-02  0.00D+00 EMaxC= 1.00D-01 BMatC= 9.73D+00 BMatP= 1.62D+02
 IDIUse=3 WtCom= 5.22D-01 WtEn= 4.78D-01
 EnCoef did   100 forward-backward iterations
 Coeff-Com:  0.106D+01-0.131D+01 0.125D+01
 Coeff-En:   0.189D+00 0.226D-02 0.809D+00
 Coeff:      0.642D+00-0.684D+00 0.104D+01
 Gap=     0.473 Goal=   None    Shift=    0.000
 RMSDP=9.51D-03 MaxDP=1.23D+00 DE=-2.14D+00 OVMax= 6.81D-01

 Cycle   4  Pass 1  IDiag  1:
 RMSU=  7.14D-03    CP:  1.09D+00  2.59D+00 -5.64D-01
 E= -28414.3592242809     Delta-E=       11.491950918942 Rises=F Damp=F
 DIIS: error= 7.59D-02 at cycle   4 NSaved=   4.
 NSaved= 4 IEnMin= 3 EnMin= -28425.8511751999     IErMin= 3 ErrMin= 4.78D-02
 ErrMax= 7.59D-02  0.00D+00 EMaxC= 1.00D-01 BMatC= 8.78D+00 BMatP= 9.73D+00
 IDIUse=3 WtCom= 2.41D-01 WtEn= 7.59D-01
 EnCoef did     5 forward-backward iterations
 Coeff-Com:  0.747D+00-0.941D+00 0.884D+00 0.310D+00
 Coeff-En:   0.166D+00 0.000D+00 0.782D+00 0.527D-01
 Coeff:      0.306D+00-0.227D+00 0.806D+00 0.115D+00
 Gap=     0.136 Goal=   None    Shift=    0.000
 RMSDP=9.83D-03 MaxDP=1.65D+00 DE= 1.15D+01 OVMax= 9.76D-01

 Cycle   5  Pass 1  IDiag  1:
 RMSU=  2.70D-03    CP:  9.00D-01  1.03D-01  6.06D-01  1.07D-01
 E= -28425.4948052151     Delta-E=      -11.135580934133 Rises=F Damp=F
 DIIS: error= 3.49D-02 at cycle   5 NSaved=   5.
 NSaved= 5 IEnMin= 3 EnMin= -28425.8511751999     IErMin= 5 ErrMin= 3.49D-02
 ErrMax= 3.49D-02  0.00D+00 EMaxC= 1.00D-01 BMatC= 3.79D+00 BMatP= 8.78D+00
 IDIUse=3 WtCom= 6.51D-01 WtEn= 3.49D-01
 Coeff-Com: -0.671D-01 0.132D+00 0.359D+00 0.649D-01 0.511D+00
 Coeff-En:   0.000D+00 0.000D+00 0.542D+00 0.000D+00 0.458D+00
 Coeff:     -0.436D-01 0.858D-01 0.423D+00 0.422D-01 0.493D+00
 Gap=     0.233 Goal=   None    Shift=    0.000
 RMSDP=2.02D-03 MaxDP=2.10D-01 DE=-1.11D+01 OVMax= 3.93D-01

 Cycle   6  Pass 1  IDiag  1:
 RMSU=  1.07D-03    CP:  9.20D-01  3.10D-01  8.65D-01  1.46D-02  5.08D-01
 E= -28426.7203393487     Delta-E=       -1.225534133599 Rises=F Damp=F
 DIIS: error= 1.46D-02 at cycle   6 NSaved=   6.
 NSaved= 6 IEnMin= 6 EnMin= -28426.7203393487     IErMin= 6 ErrMin= 1.46D-02
 ErrMax= 1.46D-02  0.00D+00 EMaxC= 1.00D-01 BMatC= 6.83D-01 BMatP= 3.79D+00
 IDIUse=3 WtCom= 8.54D-01 WtEn= 1.46D-01
 Coeff-Com: -0.119D+00 0.167D+00 0.739D-01 0.209D-01 0.359D+00 0.498D+00
 Coeff-En:   0.000D+00 0.000D+00 0.000D+00 0.000D+00 0.300D+00 0.700D+00
 Coeff:     -0.101D+00 0.143D+00 0.632D-01 0.179D-01 0.350D+00 0.527D+00
 Gap=     0.149 Goal=   None    Shift=    0.000
 RMSDP=1.01D-03 MaxDP=1.37D-01 DE=-1.23D+00 OVMax= 2.04D-01

 Cycle   7  Pass 1  IDiag  1:
 RMSU=  5.04D-04    CP:  9.29D-01  2.47D-01  8.27D-01  4.88D-02  5.49D-01
                    CP:  2.46D-01
 E= -28427.1686946034     Delta-E=       -0.448355254746 Rises=F Damp=F
 DIIS: error= 6.53D-03 at cycle   7 NSaved=   7.
 NSaved= 7 IEnMin= 7 EnMin= -28427.1686946034     IErMin= 7 ErrMin= 6.53D-03
 ErrMax= 6.53D-03  0.00D+00 EMaxC= 1.00D-01 BMatC= 7.30D-02 BMatP= 6.83D-01
 IDIUse=3 WtCom= 9.35D-01 WtEn= 6.53D-02
 Coeff-Com: -0.118D+00 0.157D+00-0.424D-01 0.475D-02 0.136D+00 0.266D+00
 Coeff-Com:  0.596D+00
 Coeff-En:   0.000D+00 0.000D+00 0.000D+00 0.000D+00 0.000D+00 0.924D-01
 Coeff-En:   0.908D+00
 Coeff:     -0.110D+00 0.147D+00-0.396D-01 0.444D-02 0.127D+00 0.255D+00
 Coeff:      0.617D+00
 Gap=     0.149 Goal=   None    Shift=    0.000
 RMSDP=1.16D-03 MaxDP=1.87D-01 DE=-4.48D-01 OVMax= 1.69D-01

 Cycle   8  Pass 1  IDiag  1:
 RMSU=  5.63D-04    CP:  8.99D-01  2.40D-01  8.26D-01  7.60D-02  8.21D-01
                    CP:  6.35D-01  2.58D-01
 E= -28427.1684908424     Delta-E=        0.000203761032 Rises=F Damp=F
 DIIS: error= 7.32D-03 at cycle   8 NSaved=   8.
 NSaved= 8 IEnMin= 7 EnMin= -28427.1686946034     IErMin= 7 ErrMin= 6.53D-03
 ErrMax= 7.32D-03  0.00D+00 EMaxC= 1.00D-01 BMatC= 6.77D-02 BMatP= 7.30D-02
 IDIUse=3 WtCom= 9.35D-01 WtEn= 6.53D-02
 Coeff-Com: -0.717D-01 0.948D-01-0.396D-01 0.755D-02 0.429D-01 0.118D+00
 Coeff-Com:  0.494D+00 0.353D+00
 Coeff-En:   0.000D+00 0.000D+00 0.000D+00 0.000D+00 0.000D+00 0.000D+00
 Coeff-En:   0.501D+00 0.499D+00
 Coeff:     -0.670D-01 0.886D-01-0.370D-01 0.706D-02 0.401D-01 0.111D+00
 Coeff:      0.495D+00 0.363D+00
 Gap=     0.122 Goal=   None    Shift=    0.000
 RMSDP=6.78D-04 MaxDP=8.91D-02 DE= 2.04D-04 OVMax= 1.09D-01

 Cycle   9  Pass 1  IDiag  1:
 RMSU=  1.87D-04    CP:  9.13D-01  2.36D-01  8.21D-01  6.76D-02  6.97D-01
                    CP:  4.82D-01  7.43D-01  2.20D-01
 E= -28427.2337133715     Delta-E=       -0.065222529141 Rises=F Damp=F
 DIIS: error= 1.94D-03 at cycle   9 NSaved=   9.
 NSaved= 9 IEnMin= 9 EnMin= -28427.2337133715     IErMin= 9 ErrMin= 1.94D-03
 ErrMax= 1.94D-03  0.00D+00 EMaxC= 1.00D-01 BMatC= 6.18D-03 BMatP= 6.77D-02
 IDIUse=3 WtCom= 9.81D-01 WtEn= 1.94D-02
 Coeff-Com: -0.355D-01 0.470D-01-0.216D-01 0.376D-02 0.126D-01 0.302D-01
 Coeff-Com:  0.237D+00 0.257D+00 0.469D+00
 Coeff-En:   0.000D+00 0.000D+00 0.000D+00 0.000D+00 0.000D+00 0.000D+00
 Coeff-En:   0.000D+00 0.832D-01 0.917D+00
 Coeff:     -0.348D-01 0.461D-01-0.212D-01 0.369D-02 0.124D-01 0.296D-01
 Coeff:      0.233D+00 0.253D+00 0.478D+00
 Gap=     0.121 Goal=   None    Shift=    0.000
 RMSDP=2.10D-04 MaxDP=3.56D-02 DE=-6.52D-02 OVMax= 2.26D-02

 Cycle  10  Pass 1  IDiag  1:
 RMSU=  6.21D-05    CP:  9.08D-01  2.37D-01  8.35D-01  7.00D-02  7.45D-01
                    CP:  5.23D-01  7.13D-01  4.09D-01  6.39D-01
 E= -28427.2386860464     Delta-E=       -0.004972674891 Rises=F Damp=F
 DIIS: error= 2.22D-04 at cycle  10 NSaved=  10.
 NSaved=10 IEnMin=10 EnMin= -28427.2386860464     IErMin=10 ErrMin= 2.22D-04
 ErrMax= 2.22D-04  0.00D+00 EMaxC= 1.00D-01 BMatC= 3.88D-04 BMatP= 6.18D-03
 IDIUse=3 WtCom= 9.98D-01 WtEn= 2.22D-03
 Coeff-Com: -0.894D-02 0.119D-01-0.503D-02 0.117D-02 0.493D-02-0.558D-02
 Coeff-Com:  0.302D-01 0.594D-01 0.207D+00 0.705D+00
 Coeff-En:   0.000D+00 0.000D+00 0.000D+00 0.000D+00 0.000D+00 0.000D+00
 Coeff-En:   0.000D+00 0.000D+00 0.000D+00 0.100D+01
 Coeff:     -0.892D-02 0.119D-01-0.502D-02 0.116D-02 0.492D-02-0.556D-02
 Coeff:      0.301D-01 0.593D-01 0.206D+00 0.706D+00
 Gap=     0.121 Goal=   None    Shift=    0.000
 RMSDP=4.02D-05 MaxDP=7.33D-03 DE=-4.97D-03 OVMax= 4.64D-03

 Error on total polarization charges =  0.02605
 SCF Done:  E(RPBE-PBE) =  -28427.2386860     A.U. after   10 cycles
            NFock= 10  Conv=0.40D-04     -V/T= 2.0148
 KE= 2.801398577655D+04 PE=-8.435858282754D+04 EE= 1.939891040725D+04
 Leave Link  502 at Mon Nov  4 07:23:26 2019, MaxMem=   939524096 cpu:     19392.2
 (Enter /scr/programas/g09/l801.exe)
 Range of M.O.s used for correlation:     1  1242
 NBasis=  1242 NAE=   193 NBE=   193 NFC=     0 NFV=     0
 NROrb=   1242 NOA=   193 NOB=   193 NVA=  1049 NVB=  1049

 **** Warning!!: The largest alpha MO coefficient is  0.52918515D+02

 Leave Link  801 at Mon Nov  4 07:23:26 2019, MaxMem=   939524096 cpu:         0.2
 (Enter /scr/programas/g09/l1002.exe)
 Minotr:  Closed shell wavefunction.
 NEqPCM:  Using equilibrium solvation (IEInf=0, Eps=   8.9300, EpsInf=   2.0283)
          Direct CPHF calculation.
          Differentiating once with respect to magnetic field using GIAOs.
          Electric field/nuclear overlap derivatives assumed to be zero.
          Requested convergence is 1.0D-08 RMS, and 1.0D-07 maximum.
          Secondary convergence is 1.0D-12 RMS, and 1.0D-12 maximum.
          NewPWx=T KeepS1=F KeepF1=F KeepIn=T MapXYZ=F SortEE=F KeepMc=T.
          MDV=     939522370 using IRadAn=       2.
 Defaulting to unpruned grid for atomic number  78.
 Defaulting to unpruned grid for atomic number  50.
 Generate precomputed XC quadrature information.
          Solving linear equations simultaneously, MaxMat=      72.
 FoFJK:  IHMeth= 1 ICntrl=    6127 DoSepK=F KAlg= 0 I1Cent=   0 FoldK=F
 IRaf=         1 NMat=   1 IRICut=       1 DoRegI=T DoRafI=F ISym2E= 0.
 Defaulting to unpruned grid for atomic number  78.
 Defaulting to unpruned grid for atomic number  78.
 Defaulting to unpruned grid for atomic number  78.
 Defaulting to unpruned grid for atomic number  78.
          There are     3 degrees of freedom in the 1st order CPHF.  IDoFFX=0 NUNeed=     3.
      3 vectors produced by pass  0 Test12= 6.75D-12 3.33D-08 XBig12= 2.82D+02 3.51D+00.
 AX will form     3 AO Fock derivatives at one time.
 InvSVY:  IOpt=1 It=  1 EMax= 0.00D+00
 Solved reduced A of dimension     3 with     3 vectors.
 Calculating GIAO nuclear magnetic shielding tensors.
 SCF GIAO Magnetic shielding tensor (ppm):
      1  Pt   Isotropic =  3009.7873   Anisotropy =  1106.6517
   XX=  3740.0862   YX=    47.8751   ZX=   -77.9739
   XY=    24.9237   YY=  3501.8509   ZY=  -107.9100
   XZ=   -19.1029   YZ=   -89.3683   ZZ=  1787.4247
   Eigenvalues:  1780.6701  3501.1366  3747.5551
      2  P    Isotropic =   287.8671   Anisotropy =    34.8075
   XX=   298.7773   YX=    -4.2217   ZX=     8.5482
   XY=    15.4749   YY=   297.5587   ZY=    14.2633
   XZ=    10.2823   YZ=    17.1347   ZZ=   267.2654
   Eigenvalues:   259.4835   293.0457   311.0721
      3  P    Isotropic =   270.0538   Anisotropy =    56.3026
   XX=   234.3402   YX=     0.0572   ZX=    -4.6310
   XY=   -18.6495   YY=   306.3240   ZY=    -2.1703
   XZ=     3.7248   YZ=    -1.5468   ZZ=   269.4974
   Eigenvalues:   233.1462   269.4264   307.5889
      4  C    Isotropic =   160.7297   Anisotropy =    30.2981
   XX=   150.4825   YX=     5.0594   ZX=     1.9112
   XY=    -0.3729   YY=   172.1157   ZY=    14.5155
   XZ=     1.8390   YZ=    12.2660   ZZ=   159.5908
   Eigenvalues:   150.0846   151.1760   180.9284
      5  H    Isotropic =    28.6440   Anisotropy =     8.3358
   XX=    27.6167   YX=    -4.2799   ZX=     2.6633
   XY=    -4.4717   YY=    31.2339   ZY=     2.2931
   XZ=     3.4455   YZ=     2.9294   ZZ=    27.0813
   Eigenvalues:    21.7137    30.0170    34.2012
      6  H    Isotropic =    29.3103   Anisotropy =     4.9143
   XX=    27.8693   YX=     2.0914   ZX=    -2.3251
   XY=     3.0672   YY=    29.1785   ZY=     1.9159
   XZ=    -3.2412   YZ=     1.8283   ZZ=    30.8830
   Eigenvalues:    24.1884    31.1559    32.5864
      7  C    Isotropic =   173.1122   Anisotropy =    20.2928
   XX=   164.6038   YX=     3.1620   ZX=     1.5155
   XY=     3.2321   YY=   184.7872   ZY=     5.5780
   XZ=     1.8415   YZ=     3.5316   ZZ=   169.9456
   Eigenvalues:   163.9228   168.7732   186.6407
      8  H    Isotropic =    30.2658   Anisotropy =     8.7053
   XX=    28.9289   YX=    -2.3463   ZX=     2.4021
   XY=    -2.9604   YY=    34.9485   ZY=     1.5539
   XZ=     1.7838   YZ=     2.1475   ZZ=    26.9200
   Eigenvalues:    24.7108    30.0172    36.0693
      9  H    Isotropic =    30.2437   Anisotropy =    12.8804
   XX=    25.5077   YX=     0.7556   ZX=     1.3424
   XY=     1.2348   YY=    30.7803   ZY=     6.4186
   XZ=     1.1286   YZ=     5.0728   ZZ=    34.4430
   Eigenvalues:    25.3149    26.5855    38.8306
     10  H    Isotropic =    29.9984   Anisotropy =     8.1253
   XX=    30.2723   YX=     3.7015   ZX=    -1.8388
   XY=     4.7713   YY=    31.9056   ZY=     1.1278
   XZ=    -1.3427   YZ=     2.2479   ZZ=    27.8173
   Eigenvalues:    24.9332    29.6467    35.4152
     11  C    Isotropic =   150.4512   Anisotropy =    27.7656
   XX=   155.7031   YX=    -1.9158   ZX=    -8.0678
   XY=     1.4198   YY=   161.7746   ZY=   -12.6153
   XZ=    -9.7155   YZ=   -16.6427   ZZ=   133.8760
   Eigenvalues:   125.3397   157.0524   168.9616
     12  H    Isotropic =    28.6015   Anisotropy =     8.4532
   XX=    25.6105   YX=    -2.7546   ZX=    -4.6871
   XY=    -2.1943   YY=    33.5272   ZY=    -0.9243
   XZ=    -4.0735   YZ=    -1.6185   ZZ=    26.6669
   Eigenvalues:    21.1380    30.4296    34.2370
     13  C    Isotropic =   166.0398   Anisotropy =    23.8599
   XX=   171.5442   YX=    -9.0163   ZX=    -7.8854
   XY=    -6.1028   YY=   153.4924   ZY=    -1.3615
   XZ=   -10.2927   YZ=    -2.6476   ZZ=   173.0828
   Eigenvalues:   149.5612   166.6118   181.9464
     14  H    Isotropic =    29.2668   Anisotropy =     9.0916
   XX=    30.4536   YX=     0.2271   ZX=    -1.7623
   XY=     1.2654   YY=    31.8557   ZY=    -4.5561
   XZ=    -1.9924   YZ=    -5.9331   ZZ=    25.4913
   Eigenvalues:    22.3354    30.1373    35.3279
     15  H    Isotropic =    29.7980   Anisotropy =     6.0760
   XX=    29.2506   YX=    -1.2931   ZX=     2.4386
   XY=     1.8932   YY=    28.9037   ZY=    -1.0990
   XZ=     4.4737   YZ=     1.1155   ZZ=    31.2397
   Eigenvalues:    26.6246    28.9208    33.8487
     16  C    Isotropic =   176.1312   Anisotropy =    18.5094
   XX=   183.6486   YX=    -5.3738   ZX=    -7.6102
   XY=    -0.3516   YY=   173.0823   ZY=     3.2738
   XZ=    -8.3644   YZ=     1.2399   ZZ=   171.6628
   Eigenvalues:   167.5585   172.3644   188.4708
     17  H    Isotropic =    30.8753   Anisotropy =    11.7258
   XX=    34.9233   YX=    -5.2231   ZX=     2.0055
   XY=    -4.3896   YY=    31.7829   ZY=    -1.8902
   XZ=     0.5924   YZ=    -1.0012   ZZ=    25.9197
   Eigenvalues:    25.5772    28.3562    38.6925
     18  H    Isotropic =    31.8474   Anisotropy =    14.2621
   XX=    32.0528   YX=     2.5654   ZX=    -2.9322
   XY=     4.4992   YY=    39.8018   ZY=     0.4305
   XZ=    -3.2531   YZ=    -1.8423   ZZ=    23.6875
   Eigenvalues:    22.6565    31.5302    41.3555
     19  H    Isotropic =    31.0042   Anisotropy =     8.5420
   XX=    31.0096   YX=    -2.3890   ZX=    -0.9244
   XY=    -0.2259   YY=    31.0624   ZY=     5.5983
   XZ=    -0.1773   YZ=     5.1832   ZZ=    30.9406
   Eigenvalues:    25.5578    30.7559    36.6989
     20  C    Isotropic =   159.2498   Anisotropy =    19.8943
   XX=   157.9094   YX=    -9.4301   ZX=     0.9861
   XY=    -9.4195   YY=   153.4594   ZY=     5.5318
   XZ=     2.5867   YZ=    14.2899   ZZ=   166.3807
   Eigenvalues:   142.5485   162.6883   172.5127
     21  H    Isotropic =    29.7725   Anisotropy =     8.5948
   XX=    27.1967   YX=    -0.9304   ZX=    -1.4952
   XY=    -0.3347   YY=    35.1570   ZY=     1.0367
   XZ=    -1.3857   YZ=     1.8831   ZZ=    26.9639
   Eigenvalues:    25.5883    28.2269    35.5024
     22  H    Isotropic =    29.0829   Anisotropy =    10.4128
   XX=    34.6238   YX=     2.4241   ZX=     2.2031
   XY=     0.1991   YY=    26.6033   ZY=     3.2729
   XZ=     3.2918   YZ=     3.8813   ZZ=    26.0217
   Eigenvalues:    22.6065    28.6175    36.0248
     23  C    Isotropic =   174.6384   Anisotropy =    16.2485
   XX=   165.3201   YX=     0.5727   ZX=     4.1579
   XY=    -0.0867   YY=   173.3063   ZY=    -0.4585
   XZ=    -0.4625   YZ=    -0.3670   ZZ=   185.2887
   Eigenvalues:   165.1410   173.3034   185.4707
     24  H    Isotropic =    30.6399   Anisotropy =     8.7674
   XX=    33.0416   YX=     1.4437   ZX=     2.4289
   XY=     1.2360   YY=    26.5324   ZY=     2.6038
   XZ=     3.5480   YZ=     2.7057   ZZ=    32.3457
   Eigenvalues:    25.4979    29.9369    36.4848
     25  H    Isotropic =    30.0733   Anisotropy =     5.6305
   XX=    24.5427   YX=     1.2836   ZX=     0.5705
   XY=     0.9254   YY=    32.8275   ZY=     1.5785
   XZ=     0.1607   YZ=     0.1631   ZZ=    32.8496
   Eigenvalues:    24.3906    32.0023    33.8269
     26  H    Isotropic =    30.3486   Anisotropy =    12.9445
   XX=    27.3717   YX=    -1.1336   ZX=    -2.2797
   XY=    -1.9527   YY=    27.9774   ZY=     4.6034
   XZ=    -3.4997   YZ=     5.1468   ZZ=    35.6967
   Eigenvalues:    25.6003    26.4672    38.9782
     27  C    Isotropic =   165.1994   Anisotropy =    25.4435
   XX=   159.3413   YX=     4.0556   ZX=     0.7136
   XY=     7.9773   YY=   180.5706   ZY=     0.2960
   XZ=     2.4253   YZ=    -1.8519   ZZ=   155.6864
   Eigenvalues:   154.7137   158.7228   182.1618
     28  H    Isotropic =    30.0923   Anisotropy =     7.9120
   XX=    30.9939   YX=    -0.0650   ZX=    -3.6121
   XY=    -2.7173   YY=    33.5315   ZY=     0.7689
   XZ=    -4.5149   YZ=     2.3499   ZZ=    25.7516
   Eigenvalues:    23.4859    31.4241    35.3670
     29  H    Isotropic =    30.2827   Anisotropy =     9.8523
   XX=    30.7633   YX=    -0.4769   ZX=     3.9502
   XY=    -3.6357   YY=    35.1999   ZY=    -1.3299
   XZ=     4.3526   YZ=    -1.7772   ZZ=    24.8850
   Eigenvalues:    22.7216    31.2757    36.8509
     30  C    Isotropic =   177.2560   Anisotropy =    17.9882
   XX=   171.9663   YX=     1.3606   ZX=    -0.2620
   XY=     0.8888   YY=   189.0282   ZY=     1.5067
   XZ=     0.8901   YZ=     1.7455   ZZ=   170.7736
   Eigenvalues:   170.5947   171.9252   189.2482
     31  H    Isotropic =    30.5574   Anisotropy =    12.4160
   XX=    34.5493   YX=     4.5668   ZX=    -0.5684
   XY=     5.5384   YY=    32.8453   ZY=    -0.1290
   XZ=    -0.5168   YZ=     0.0420   ZZ=    24.2775
   Eigenvalues:    24.2408    28.5966    38.8347
     32  H    Isotropic =    30.6820   Anisotropy =     9.8711
   XX=    27.8212   YX=     2.3990   ZX=    -1.9466
   XY=     1.1994   YY=    33.8382   ZY=     5.1581
   XZ=    -1.7636   YZ=     4.5081   ZZ=    30.3867
   Eigenvalues:    24.8082    29.9752    37.2628
     33  H    Isotropic =    30.5669   Anisotropy =     9.8145
   XX=    28.1512   YX=     1.8721   ZX=     2.5364
   XY=     0.1848   YY=    34.8885   ZY=    -4.6045
   XZ=     2.5154   YZ=    -4.0435   ZZ=    28.6611
   Eigenvalues:    24.4497    30.1412    37.1099
     34  C    Isotropic =   160.9134   Anisotropy =    22.6972
   XX=   155.5701   YX=   -10.6010   ZX=    -3.0121
   XY=   -10.5745   YY=   153.2796   ZY=    -4.0949
   XZ=    -4.2677   YZ=    -9.8793   ZZ=   173.8906
   Eigenvalues:   141.9430   164.7523   176.0449
     35  H    Isotropic =    29.8007   Anisotropy =     9.1062
   XX=    26.1753   YX=     0.2837   ZX=     1.6042
   XY=     0.8701   YY=    34.9993   ZY=    -2.1619
   XZ=     1.5661   YZ=    -3.0016   ZZ=    28.2274
   Eigenvalues:    24.9786    28.5519    35.8715
     36  H    Isotropic =    28.8462   Anisotropy =    10.4255
   XX=    35.1885   YX=     1.3634   ZX=    -1.6604
   XY=    -1.0475   YY=    25.0352   ZY=    -3.1060
   XZ=    -2.7909   YZ=    -3.3026   ZZ=    26.3147
   Eigenvalues:    22.2736    28.4683    35.7965
     37  C    Isotropic =   173.7457   Anisotropy =    15.6870
   XX=   163.7046   YX=     1.0584   ZX=    -5.2205
   XY=    -0.3742   YY=   174.3703   ZY=     3.0334
   XZ=    -0.2042   YZ=     2.2375   ZZ=   183.1622
   Eigenvalues:   163.2885   173.7448   184.2037
     38  H    Isotropic =    30.2512   Anisotropy =    13.2051
   XX=    26.2342   YX=    -0.6733   ZX=     1.2539
   XY=    -1.3330   YY=    27.1879   ZY=    -3.7167
   XZ=     2.4839   YZ=    -4.2615   ZZ=    37.3314
   Eigenvalues:    25.5145    26.1844    39.0545
     39  H    Isotropic =    29.9658   Anisotropy =     6.1639
   XX=    24.6252   YX=     2.0971   ZX=    -0.9295
   XY=     1.8671   YY=    32.4847   ZY=    -1.8068
   XZ=    -0.4997   YZ=    -0.3009   ZZ=    32.7875
   Eigenvalues:    24.1297    31.6927    34.0750
     40  H    Isotropic =    30.4156   Anisotropy =     8.4238
   XX=    33.3496   YX=    -0.2543   ZX=    -2.4099
   XY=    -0.7585   YY=    25.6837   ZY=    -1.7602
   XZ=    -3.9204   YZ=    -1.2732   ZZ=    32.2136
   Eigenvalues:    25.1505    30.0648    36.0315
     41  Sn   Isotropic =  2143.7591   Anisotropy =   825.3211
   XX=  2693.7436   YX=    15.7971   ZX=    -7.7236
   XY=     7.1822   YY=  1968.5863   ZY=    -6.7950
   XZ=    -5.1720   YZ=   -16.1969   ZZ=  1768.9473
   Eigenvalues:  1768.2514  1969.0527  2693.9732
     42  Cl   Isotropic =   750.1225   Anisotropy =   319.5486
   XX=   720.6819   YX=    50.2836   ZX=  -163.1253
   XY=    30.2113   YY=   705.5347   ZY=   -39.9180
   XZ=  -181.7909   YZ=   -30.9136   ZZ=   824.1508
   Eigenvalues:   591.2010   696.0115   963.1549
     43  Cl   Isotropic =   752.2810   Anisotropy =   311.7235
   XX=   717.2323   YX=   120.6951   ZX=   124.2750
   XY=   100.6694   YY=   769.0007   ZY=    66.8460
   XZ=   151.7744   YZ=    57.2989   ZZ=   770.6100
   Eigenvalues:   587.6623   709.0840   960.0967
     44  Cl   Isotropic =   749.3327   Anisotropy =   289.8937
   XX=   727.1543   YX=  -159.2114   ZX=    35.4606
   XY=  -136.3967   YY=   826.7460   ZY=   -35.4634
   XZ=    32.8301   YZ=   -36.2107   ZZ=   694.0980
   Eigenvalues:   620.2790   685.1240   942.5952
     45  C    Isotropic =   171.2198   Anisotropy =    20.3686
   XX=   161.5895   YX=     4.3329   ZX=    -5.4777
   XY=     2.7831   YY=   181.8111   ZY=    -5.0075
   XZ=    -6.5890   YZ=    -4.3999   ZZ=   170.2588
   Eigenvalues:   158.4459   170.4147   184.7988
     46  H    Isotropic =    30.0969   Anisotropy =    11.8152
   XX=    30.8643   YX=     2.4645   ZX=    -3.9461
   XY=     3.8284   YY=    30.9531   ZY=    -4.5229
   XZ=    -4.8435   YZ=    -3.9448   ZZ=    28.4733
   Eigenvalues:    24.5504    27.7667    37.9737
     47  H    Isotropic =    30.0924   Anisotropy =     9.4212
   XX=    29.3128   YX=     0.1585   ZX=     1.9388
   XY=    -0.6245   YY=    29.5535   ZY=    -5.2512
   XZ=     2.5713   YZ=    -5.3513   ZZ=    31.4108
   Eigenvalues:    24.7217    29.1823    36.3732
     48  H    Isotropic =    30.0999   Anisotropy =     8.6801
   XX=    25.4159   YX=     0.9943   ZX=    -1.6714
   XY=     0.8274   YY=    35.6766   ZY=     1.7894
   XZ=    -2.0861   YZ=     0.3593   ZZ=    29.2071
   Eigenvalues:    24.5016    29.9115    35.8867
     49  H    Isotropic =    28.8036   Anisotropy =     8.2772
   XX=    30.8379   YX=    -1.6875   ZX=     1.6644
   XY=    -2.1965   YY=    30.8899   ZY=    -3.6134
   XZ=     1.0419   YZ=    -4.1321   ZZ=    24.6831
   Eigenvalues:    22.8045    29.2846    34.3218
     50  C    Isotropic =     2.4188   Anisotropy =   189.6859
   XX=   -45.8537   YX=     2.9385   ZX=    12.6032
   XY=     0.6419   YY=   128.7230   ZY=     5.1108
   XZ=    -1.9643   YZ=     5.2764   ZZ=   -75.6128
   Eigenvalues:   -76.6479   -44.9717   128.8761
     51  C    Isotropic =    38.0785   Anisotropy =   156.6317
   XX=    16.6329   YX=     0.7984   ZX=   -34.4567
   XY=    -2.4197   YY=   142.2198   ZY=     7.3842
   XZ=   -53.3916   YZ=     5.7862   ZZ=   -44.6173
   Eigenvalues:   -67.6809    39.4168   142.4996
     52  C    Isotropic =    45.6086   Anisotropy =   158.0339
   XX=    19.1646   YX=     0.4107   ZX=    32.4834
   XY=     2.5258   YY=   150.7377   ZY=     4.2486
   XZ=    50.6249   YZ=     6.8229   ZZ=   -33.0764
   Eigenvalues:   -56.1205    41.9818   150.9646
     53  C    Isotropic =    55.5533   Anisotropy =   142.5023
   XX=    29.5369   YX=    -0.1370   ZX=    44.2649
   XY=     0.3534   YY=   150.2878   ZY=     6.5750
   XZ=    39.8633   YZ=     5.9681   ZZ=   -13.1648
   Eigenvalues:   -39.1342    55.2392   150.5548
     54  H    Isotropic =    23.6151   Anisotropy =    13.5148
   XX=    29.2744   YX=    -0.9485   ZX=    -6.5887
   XY=    -0.3583   YY=    19.7952   ZY=    -0.5493
   XZ=    -5.4454   YZ=    -0.3096   ZZ=    21.7756
   Eigenvalues:    18.1433    20.0770    32.6249
     55  C    Isotropic =    55.2206   Anisotropy =   152.3870
   XX=    31.8381   YX=     4.0677   ZX=   -42.2329
   XY=     3.1700   YY=   156.5231   ZY=     5.4129
   XZ=   -37.2608   YZ=     7.9704   ZZ=   -22.6995
   Eigenvalues:   -43.9211    52.7709   156.8119
     56  H    Isotropic =    23.6782   Anisotropy =    13.6966
   XX=    28.6545   YX=    -1.1131   ZX=     6.7843
   XY=    -0.5567   YY=    19.4531   ZY=    -0.2446
   XZ=     5.9279   YZ=    -0.0918   ZZ=    22.9270
   Eigenvalues:    18.6849    19.5405    32.8093
     57  C    Isotropic =    57.4623   Anisotropy =    87.9685
   XX=    -5.0513   YX=     2.4481   ZX=    -0.4802
   XY=     4.9598   YY=   115.9499   ZY=     0.3683
   XZ=     0.9584   YZ=     2.7448   ZZ=    61.4882
   Eigenvalues:    -5.1652    61.4440   116.1079
     58  H    Isotropic =    25.8120   Anisotropy =     6.1159
   XX=    28.7262   YX=    -0.2243   ZX=     3.2869
   XY=    -0.2515   YY=    24.5722   ZY=     0.1118
   XZ=     1.8541   YZ=    -0.2811   ZZ=    24.1377
   Eigenvalues:    22.9863    24.5605    29.8893
     59  H    Isotropic =    25.9577   Anisotropy =     5.5760
   XX=    28.7300   YX=     0.0825   ZX=    -3.0288
   XY=    -0.2768   YY=    25.5987   ZY=     0.1072
   XZ=    -1.7721   YZ=     0.1322   ZZ=    23.5444
   Eigenvalues:    22.6019    25.5962    29.6750
     60  Br   Isotropic =  1877.3095   Anisotropy =  1527.1718
   XX=  2894.5487   YX=   -28.8051   ZX=    24.2922
   XY=   -26.6144   YY=  1316.8581   ZY=   -11.3428
   XZ=    23.3177   YZ=    -5.1625   ZZ=  1420.5216
   Eigenvalues:  1315.7837  1420.7208  2895.4240
 End of Minotr F.D. properties file   721 does not exist.
 End of Minotr F.D. properties file   722 does not exist.
 End of Minotr F.D. properties file   788 does not exist.
 Leave Link 1002 at Mon Nov  4 10:18:47 2019, MaxMem=   939524096 cpu:     41527.5
 (Enter /scr/programas/g09/l601.exe)
 Copying SCF densities to generalized density rwf, IOpCl= 0 IROHF=0.

 **********************************************************************

            Population analysis using the SCF density.

 **********************************************************************

 Orbital symmetries:
       Occupied  (A) (A) (A) (A) (A) (A) (A) (A) (A) (A) (A) (A)
                 (A) (A) (A) (A) (A) (A) (A) (A) (A) (A) (A) (A)
                 (A) (A) (A) (A) (A) (A) (A) (A) (A) (A) (A) (A)
                 (A) (A) (A) (A) (A) (A) (A) (A) (A) (A) (A) (A)
                 (A) (A) (A) (A) (A) (A) (A) (A) (A) (A) (A) (A)
                 (A) (A) (A) (A) (A) (A) (A) (A) (A) (A) (A) (A)
                 (A) (A) (A) (A) (A) (A) (A) (A) (A) (A) (A) (A)
                 (A) (A) (A) (A) (A) (A) (A) (A) (A) (A) (A) (A)
                 (A) (A) (A) (A) (A) (A) (A) (A) (A) (A) (A) (A)
                 (A) (A) (A) (A) (A) (A) (A) (A) (A) (A) (A) (A)
                 (A) (A) (A) (A) (A) (A) (A) (A) (A) (A) (A) (A)
                 (A) (A) (A) (A) (A) (A) (A) (A) (A) (A) (A) (A)
                 (A) (A) (A) (A) (A) (A) (A) (A) (A) (A) (A) (A)
                 (A) (A) (A) (A) (A) (A) (A) (A) (A) (A) (A) (A)
                 (A) (A) (A) (A) (A) (A) (A) (A) (A) (A) (A) (A)
                 (A) (A) (A) (A) (A) (A) (A) (A) (A) (A) (A) (A)
                 (A)
       Virtual   (A) (A) (A) (A) (A) (A) (A) (A) (A) (A) (A) (A)
                 (A) (A) (A) (A) (A) (A) (A) (A) (A) (A) (A) (A)
                 (A) (A) (A) (A) (A) (A) (A) (A) (A) (A) (A) (A)
                 (A) (A) (A) (A) (A) (A) (A) (A) (A) (A) (A) (A)
                 (A) (A) (A) (A) (A) (A) (A) (A) (A) (A) (A) (A)
                 (A) (A) (A) (A) (A) (A) (A) (A) (A) (A) (A) (A)
                 (A) (A) (A) (A) (A) (A) (A) (A) (A) (A) (A) (A)
                 (A) (A) (A) (A) (A) (A) (A) (A) (A) (A) (A) (A)
                 (A) (A) (A) (A) (A) (A) (A) (A) (A) (A) (A) (A)
                 (A) (A) (A) (A) (A) (A) (A) (A) (A) (A) (A) (A)
                 (A) (A) (A) (A) (A) (A) (A) (A) (A) (A) (A) (A)
                 (A) (A) (A) (A) (A) (A) (A) (A) (A) (A) (A) (A)
                 (A) (A) (A) (A) (A) (A) (A) (A) (A) (A) (A) (A)
                 (A) (A) (A) (A) (A) (A) (A) (A) (A) (A) (A) (A)
                 (A) (A) (A) (A) (A) (A) (A) (A) (A) (A) (A) (A)
                 (A) (A) (A) (A) (A) (A) (A) (A) (A) (A) (A) (A)
                 (A) (A) (A) (A) (A) (A) (A) (A) (A) (A) (A) (A)
                 (A) (A) (A) (A) (A) (A) (A) (A) (A) (A) (A) (A)
                 (A) (A) (A) (A) (A) (A) (A) (A) (A) (A) (A) (A)
                 (A) (A) (A) (A) (A) (A) (A) (A) (A) (A) (A) (A)
                 (A) (A) (A) (A) (A) (A) (A) (A) (A) (A) (A) (A)
                 (A) (A) (A) (A) (A) (A) (A) (A) (A) (A) (A) (A)
                 (A) (A) (A) (A) (A) (A) (A) (A) (A) (A) (A) (A)
                 (A) (A) (A) (A) (A) (A) (A) (A) (A) (A) (A) (A)
                 (A) (A) (A) (A) (A) (A) (A) (A) (A) (A) (A) (A)
                 (A) (A) (A) (A) (A) (A) (A) (A) (A) (A) (A) (A)
                 (A) (A) (A) (A) (A) (A) (A) (A) (A) (A) (A) (A)
                 (A) (A) (A) (A) (A) (A) (A) (A) (A) (A) (A) (A)
                 (A) (A) (A) (A) (A) (A) (A) (A) (A) (A) (A) (A)
                 (A) (A) (A) (A) (A) (A) (A) (A) (A) (A) (A) (A)
                 (A) (A) (A) (A) (A) (A) (A) (A) (A) (A) (A) (A)
                 (A) (A) (A) (A) (A) (A) (A) (A) (A) (A) (A) (A)
                 (A) (A) (A) (A) (A) (A) (A) (A) (A) (A) (A) (A)
                 (A) (A) (A) (A) (A) (A) (A) (A) (A) (A) (A) (A)
                 (A) (A) (A) (A) (A) (A) (A) (A) (A) (A) (A) (A)
                 (A) (A) (A) (A) (A) (A) (A) (A) (A) (A) (A) (A)
                 (A) (A) (A) (A) (A) (A) (A) (A) (A) (A) (A) (A)
                 (A) (A) (A) (A) (A) (A) (A) (A) (A) (A) (A) (A)
                 (A) (A) (A) (A) (A) (A) (A) (A) (A) (A) (A) (A)
                 (A) (A) (A) (A) (A) (A) (A) (A) (A) (A) (A) (A)
                 (A) (A) (A) (A) (A) (A) (A) (A) (A) (A) (A) (A)
                 (A) (A) (A) (A) (A) (A) (A) (A) (A) (A) (A) (A)
                 (A) (A) (A) (A) (A) (A) (A) (A) (A) (A) (A) (A)
                 (A) (A) (A) (A) (A) (A) (A) (A) (A) (A) (A) (A)
                 (A) (A) (A) (A) (A) (A) (A) (A) (A) (A) (A) (A)
                 (A) (A) (A) (A) (A) (A) (A) (A) (A) (A) (A) (A)
                 (A) (A) (A) (A) (A) (A) (A) (A) (A) (A) (A) (A)
                 (A) (A) (A) (A) (A) (A) (A) (A) (A) (A) (A) (A)
                 (A) (A) (A) (A) (A) (A) (A) (A) (A) (A) (A) (A)
                 (A) (A) (A) (A) (A) (A) (A) (A) (A) (A) (A) (A)
                 (A) (A) (A) (A) (A) (A) (A) (A) (A) (A) (A) (A)
                 (A) (A) (A) (A) (A) (A) (A) (A) (A) (A) (A) (A)
                 (A) (A) (A) (A) (A) (A) (A) (A) (A) (A) (A) (A)
                 (A) (A) (A) (A) (A) (A) (A) (A) (A) (A) (A) (A)
                 (A) (A) (A) (A) (A) (A) (A) (A) (A) (A) (A) (A)
                 (A) (A) (A) (A) (A) (A) (A) (A) (A) (A) (A) (A)
                 (A) (A) (A) (A) (A) (A) (A) (A) (A) (A) (A) (A)
                 (A) (A) (A) (A) (A) (A) (A) (A) (A) (A) (A) (A)
                 (A) (A) (A) (A) (A) (A) (A) (A) (A) (A) (A) (A)
                 (A) (A) (A) (A) (A) (A) (A) (A) (A) (A) (A) (A)
                 (A) (A) (A) (A) (A) (A) (A) (A) (A) (A) (A) (A)
                 (A) (A) (A) (A) (A) (A) (A) (A) (A) (A) (A) (A)
                 (A) (A) (A) (A) (A) (A) (A) (A) (A) (A) (A) (A)
                 (A) (A) (A) (A) (A) (A) (A) (A) (A) (A) (A) (A)
                 (A) (A) (A) (A) (A) (A) (A) (A) (A) (A) (A) (A)
                 (A) (A) (A) (A) (A) (A) (A) (A) (A) (A) (A) (A)
                 (A) (A) (A) (A) (A) (A) (A) (A) (A) (A) (A) (A)
                 (A) (A) (A) (A) (A) (A) (A) (A) (A) (A) (A) (A)
                 (A) (A) (A) (A) (A) (A) (A) (A) (A) (A) (A) (A)
                 (A) (A) (A) (A) (A) (A) (A) (A) (A) (A) (A) (A)
                 (A) (A) (A) (A) (A) (A) (A) (A) (A) (A) (A) (A)
                 (A) (A) (A) (A) (A) (A) (A) (A) (A) (A) (A) (A)
                 (A) (A) (A) (A) (A) (A) (A) (A) (A) (A) (A) (A)
                 (A) (A) (A) (A) (A) (A) (A) (A) (A) (A) (A) (A)
                 (A) (A) (A) (A) (A) (A) (A) (A) (A) (A) (A) (A)
                 (A) (A) (A) (A) (A) (A) (A) (A) (A) (A) (A) (A)
                 (A) (A) (A) (A) (A) (A) (A) (A) (A) (A) (A) (A)
                 (A) (A) (A) (A) (A) (A) (A) (A) (A) (A) (A) (A)
                 (A) (A) (A) (A) (A) (A) (A) (A) (A) (A) (A) (A)
                 (A) (A) (A) (A) (A) (A) (A) (A) (A) (A) (A) (A)
                 (A) (A) (A) (A) (A) (A) (A) (A) (A) (A) (A) (A)
                 (A) (A) (A) (A) (A) (A) (A) (A) (A) (A) (A) (A)
                 (A) (A) (A) (A) (A) (A) (A) (A) (A) (A) (A) (A)
                 (A) (A) (A) (A) (A) (A) (A) (A) (A) (A) (A) (A)
                 (A) (A) (A) (A) (A) (A) (A) (A) (A) (A) (A) (A)
                 (A) (A) (A) (A) (A) (A) (A) (A) (A) (A) (A) (A)
                 (A) (A) (A) (A) (A) (A) (A) (A) (A) (A) (A) (A)
                 (A) (A) (A) (A) (A)
 The electronic state is 1-A.
 Alpha  occ. eigenvalues -- ********************-478.63018-427.54000-414.87043
 Alpha  occ. eigenvalues -- -414.87007-414.86728-149.65434-141.93252-141.93248
 Alpha  occ. eigenvalues -- -141.93177-100.55463-100.55388-100.55315 -99.92051
 Alpha  occ. eigenvalues --  -92.07907 -92.07789 -92.07432 -79.03787 -79.03667
 Alpha  occ. eigenvalues --  -79.03467 -79.03409 -79.03362 -76.29956 -76.29839
 Alpha  occ. eigenvalues --  -61.54803 -55.73367 -55.72967 -55.72951 -28.81754
 Alpha  occ. eigenvalues --  -25.16391 -25.16384 -25.16156 -20.83522 -17.71293
 Alpha  occ. eigenvalues --  -17.71292 -17.71139 -17.71136 -17.71090 -17.40363
 Alpha  occ. eigenvalues --  -17.40141 -17.39382 -11.58745 -11.58320 -11.57911
 Alpha  occ. eigenvalues --  -11.57799 -11.57709  -9.95372  -9.91015  -9.90978
 Alpha  occ. eigenvalues --   -9.90962  -9.90908  -9.90896  -9.90890  -9.90869
 Alpha  occ. eigenvalues --   -9.90731  -9.90576  -9.90131  -9.90060  -9.89237
 Alpha  occ. eigenvalues --   -9.89211  -9.89148  -9.89106  -9.89083  -9.88708
 Alpha  occ. eigenvalues --   -9.13355  -9.13264  -9.13191  -8.37627  -6.97110
 Alpha  occ. eigenvalues --   -6.97013  -6.96951  -6.96558  -6.96546  -6.96476
 Alpha  occ. eigenvalues --   -6.96458  -6.96398  -6.96378  -6.32966  -6.32878
 Alpha  occ. eigenvalues --   -6.28716  -6.27554  -6.27513  -4.55499  -4.55491
 Alpha  occ. eigenvalues --   -4.55404  -4.55390  -4.55222  -4.55147  -4.50365
 Alpha  occ. eigenvalues --   -3.23807  -3.23782  -3.23378  -3.13606  -3.13571
 Alpha  occ. eigenvalues --   -3.13122  -3.12821  -3.12700  -3.12617  -3.12579
 Alpha  occ. eigenvalues --   -2.86449  -2.49601  -2.49303  -2.49280  -2.48418
 Alpha  occ. eigenvalues --   -2.48417  -1.81458  -1.81278  -1.78759  -1.02816
 Alpha  occ. eigenvalues --   -1.02810  -1.02448  -1.02403  -1.02308  -0.79850
 Alpha  occ. eigenvalues --   -0.73761  -0.73514  -0.73355  -0.72051  -0.70531
 Alpha  occ. eigenvalues --   -0.70436  -0.69719  -0.69463  -0.69207  -0.69161
 Alpha  occ. eigenvalues --   -0.68660  -0.65631  -0.61424  -0.61119  -0.57262
 Alpha  occ. eigenvalues --   -0.56921  -0.56601  -0.55753  -0.55653  -0.53558
 Alpha  occ. eigenvalues --   -0.49185  -0.48389  -0.45962  -0.43210  -0.42670
 Alpha  occ. eigenvalues --   -0.42510  -0.42185  -0.41848  -0.41643  -0.40961
 Alpha  occ. eigenvalues --   -0.40756  -0.40496  -0.38723  -0.38379  -0.38235
 Alpha  occ. eigenvalues --   -0.37996  -0.37745  -0.37335  -0.36820  -0.36678
 Alpha  occ. eigenvalues --   -0.36400  -0.35415  -0.35276  -0.34929  -0.34145
 Alpha  occ. eigenvalues --   -0.33846  -0.33593  -0.33313  -0.32766  -0.32556
 Alpha  occ. eigenvalues --   -0.32252  -0.32088  -0.31940  -0.31745  -0.31399
 Alpha  occ. eigenvalues --   -0.31338  -0.31072  -0.30749  -0.30542  -0.29164
 Alpha  occ. eigenvalues --   -0.28846  -0.28575  -0.28425  -0.28200  -0.27499
 Alpha  occ. eigenvalues --   -0.27254  -0.26616  -0.26243  -0.26184  -0.25843
 Alpha  occ. eigenvalues --   -0.25702  -0.25651  -0.25455  -0.23979  -0.23479
 Alpha  occ. eigenvalues --   -0.22518  -0.20875  -0.20308
[...]
 Alpha virt. eigenvalues --    0.46532   0.46716   0.46882   0.47304   0.47572
 Alpha virt. eigenvalues --    0.47769   0.47871   0.48205   0.48421   0.48529
 Alpha virt. eigenvalues --    0.48739   0.48887   0.49160   0.49569   0.49596
 Alpha virt. eigenvalues --    0.50037   0.50153   0.50540   0.50711   0.50843
 Alpha virt. eigenvalues --    0.51046   0.51364   0.51533   0.51617   0.52164
 Alpha virt. eigenvalues --    0.52207   0.52584   0.52666   0.52892   0.53049
 Alpha virt. eigenvalues --    0.53489   0.53744   0.53938   0.53975   0.54690
 Alpha virt. eigenvalues --    0.54743   0.55022   0.55097   0.55233   0.55729
 Alpha virt. eigenvalues --    0.56036   0.56142   0.56395   0.56483   0.56828
 Alpha virt. eigenvalues --    0.56910   0.57276   0.57541   0.57718   0.57941
 Alpha virt. eigenvalues --    0.58237   0.58579   0.58781   0.59030   0.59194
 Alpha virt. eigenvalues --    0.59397   0.59729   0.59991   0.60209   0.60217
 Alpha virt. eigenvalues --    0.60968   0.61120   0.61466   0.61570   0.61711
 Alpha virt. eigenvalues --    0.62118   0.62148   0.62412   0.62590   0.62950
 Alpha virt. eigenvalues --    0.63209   0.63650   0.63925   0.64060   0.64061
 Alpha virt. eigenvalues --    0.64581   0.64749   0.64992   0.65389   0.65664
 Alpha virt. eigenvalues --    0.65770   0.65969   0.66330   0.66578   0.66756
 Alpha virt. eigenvalues --    0.67232   0.67662   0.67787   0.67992   0.68089
 Alpha virt. eigenvalues --    0.68366   0.68717   0.69044   0.69177   0.69294
 Alpha virt. eigenvalues --    0.69820   0.70149   0.70352   0.70511   0.70679
 Alpha virt. eigenvalues --    0.71067   0.71345   0.71585   0.71896   0.71911
 Alpha virt. eigenvalues --    0.72369   0.72406   0.72490   0.73094   0.73584
 Alpha virt. eigenvalues --    0.73661   0.73866   0.73979   0.74384   0.74528
 Alpha virt. eigenvalues --    0.74932   0.75308   0.75562   0.75744   0.75906
 Alpha virt. eigenvalues --    0.76083   0.76417   0.76489   0.76906   0.76947
 Alpha virt. eigenvalues --    0.77245   0.77493   0.77911   0.78005   0.78209
 Alpha virt. eigenvalues --    0.78462   0.78706   0.79106   0.79443   0.79694
 Alpha virt. eigenvalues --    0.80334   0.80709   0.80735   0.81143   0.81276
 Alpha virt. eigenvalues --    0.81708   0.81807   0.81913   0.82359   0.82421
 Alpha virt. eigenvalues --    0.82834   0.83146   0.83464   0.83959   0.84215
 Alpha virt. eigenvalues --    0.84338   0.84677   0.84799   0.84972   0.85374
 Alpha virt. eigenvalues --    0.85674   0.85875   0.86310   0.86602   0.86806
 Alpha virt. eigenvalues --    0.87094   0.87455   0.87569   0.87846   0.88138
 Alpha virt. eigenvalues --    0.88429   0.88708   0.88899   0.89311   0.89469
 Alpha virt. eigenvalues --    0.89632   0.90327   0.90772   0.90990   0.91175
 Alpha virt. eigenvalues --    0.91532   0.91737   0.91780   0.92272   0.92310
 Alpha virt. eigenvalues --    0.92546   0.93110   0.93278   0.93589   0.93879
 Alpha virt. eigenvalues --    0.94303   0.94529   0.94854   0.95007   0.95701
 Alpha virt. eigenvalues --    0.95881   0.96363   0.96688   0.96837   0.97060
 Alpha virt. eigenvalues --    0.97683   0.98252   0.98427   0.98866   0.99055
 Alpha virt. eigenvalues --    0.99455   0.99686   0.99848   1.00268   1.00568
 Alpha virt. eigenvalues --    1.00968   1.01217   1.01300   1.01977   1.02372
 Alpha virt. eigenvalues --    1.02431   1.03153   1.03279   1.03414   1.03745
 Alpha virt. eigenvalues --    1.04323   1.04510   1.04818   1.05092   1.05465
 Alpha virt. eigenvalues --    1.05514   1.05952   1.06317   1.06720   1.07045
 Alpha virt. eigenvalues --    1.07607   1.07743   1.08030   1.08647   1.09034
 Alpha virt. eigenvalues --    1.09577   1.10115   1.10249   1.10547   1.10862
 Alpha virt. eigenvalues --    1.11340   1.11594   1.11649   1.11828   1.12189
 Alpha virt. eigenvalues --    1.12510   1.13033   1.13456   1.13965   1.14304
 Alpha virt. eigenvalues --    1.14671   1.15195   1.15452   1.15763   1.16032
 Alpha virt. eigenvalues --    1.16662   1.17035   1.17750   1.17860   1.18662
 Alpha virt. eigenvalues --    1.18727   1.18863   1.19506   1.20138   1.20771
 Alpha virt. eigenvalues --    1.21128   1.21418   1.22105   1.22311   1.22531
 Alpha virt. eigenvalues --    1.23009   1.23543   1.24035   1.24408   1.24725
 Alpha virt. eigenvalues --    1.25800   1.26179   1.26560   1.27024   1.27084
 Alpha virt. eigenvalues --    1.27829   1.28100   1.28787   1.28926   1.29319
 Alpha virt. eigenvalues --    1.29668   1.29979   1.30112   1.30415   1.30775
 Alpha virt. eigenvalues --    1.31696   1.31986   1.32602   1.32657   1.33067
 Alpha virt. eigenvalues --    1.33240   1.33754   1.34108   1.34553   1.34792
 Alpha virt. eigenvalues --    1.35180   1.35632   1.36021   1.36707   1.36978
 Alpha virt. eigenvalues --    1.37546   1.38073   1.38541   1.39147   1.39438
 Alpha virt. eigenvalues --    1.39670   1.40064   1.40437   1.40863   1.41135
 Alpha virt. eigenvalues --    1.41864   1.42328   1.42633   1.42992   1.43385
 Alpha virt. eigenvalues --    1.43816   1.44456   1.44722   1.45107   1.45461
 Alpha virt. eigenvalues --    1.45999   1.46586   1.47360   1.47696   1.48035
 Alpha virt. eigenvalues --    1.48799   1.49465   1.49571   1.49656   1.49783
 Alpha virt. eigenvalues --    1.50296   1.50867   1.51407   1.51709   1.52172
 Alpha virt. eigenvalues --    1.52594   1.53045   1.54167   1.54223   1.54729
 Alpha virt. eigenvalues --    1.55067   1.55608   1.56509   1.56822   1.57406
 Alpha virt. eigenvalues --    1.57964   1.58290   1.58496   1.59312   1.59421
 Alpha virt. eigenvalues --    1.59701   1.60524   1.61014   1.61465   1.62045
 Alpha virt. eigenvalues --    1.62395   1.63240   1.64216   1.64538   1.65080
 Alpha virt. eigenvalues --    1.66008   1.66259   1.66969   1.67726   1.68204
 Alpha virt. eigenvalues --    1.69390   1.69534   1.69842   1.70528   1.71697
 Alpha virt. eigenvalues --    1.72099   1.72555   1.73361   1.73628   1.74374
 Alpha virt. eigenvalues --    1.74621   1.74926   1.75735   1.76180   1.76869
 Alpha virt. eigenvalues --    1.77316   1.78293   1.79011   1.79584   1.80255
 Alpha virt. eigenvalues --    1.80728   1.81201   1.81524   1.82101   1.82687
 Alpha virt. eigenvalues --    1.83397   1.83968   1.84564   1.84652   1.85371
 Alpha virt. eigenvalues --    1.85547   1.85930   1.86409   1.86705   1.88156
 Alpha virt. eigenvalues --    1.88241   1.88766   1.88907   1.89515   1.89818
 Alpha virt. eigenvalues --    1.91054   1.91770   1.92187   1.92760   1.93370
 Alpha virt. eigenvalues --    1.93705   1.94226   1.94911   1.95501   1.95920
 Alpha virt. eigenvalues --    1.96225   1.96518   1.97348   1.97432   1.98437
 Alpha virt. eigenvalues --    1.99216   1.99622   1.99951   2.00557   2.01687
 Alpha virt. eigenvalues --    2.02144   2.02652   2.03595   2.03938   2.04393
 Alpha virt. eigenvalues --    2.05354   2.05574   2.06034   2.06385   2.07055
 Alpha virt. eigenvalues --    2.07515   2.08244   2.08792   2.09798   2.10581
 Alpha virt. eigenvalues --    2.10915   2.11355   2.11754   2.12285   2.13634
 Alpha virt. eigenvalues --    2.13984   2.14424   2.15459   2.15817   2.16055
 Alpha virt. eigenvalues --    2.16294   2.17028   2.17075   2.17785   2.18395
 Alpha virt. eigenvalues --    2.18757   2.19482   2.20313   2.21088   2.21478
 Alpha virt. eigenvalues --    2.21921   2.22053   2.23207   2.23718   2.24350
 Alpha virt. eigenvalues --    2.24727   2.25777   2.27195   2.27599   2.28022
 Alpha virt. eigenvalues --    2.28451   2.29304   2.30209   2.30781   2.31363
 Alpha virt. eigenvalues --    2.31737   2.32441   2.32955   2.33344   2.33619
 Alpha virt. eigenvalues --    2.33800   2.34669   2.35067   2.35326   2.36087
 Alpha virt. eigenvalues --    2.36751   2.37206   2.37453   2.37712   2.37838
 Alpha virt. eigenvalues --    2.38349   2.38952   2.39030   2.39863   2.40367
 Alpha virt. eigenvalues --    2.41305   2.41880   2.42497   2.42946   2.43691
 Alpha virt. eigenvalues --    2.44147   2.45104   2.45645   2.46206   2.46677
 Alpha virt. eigenvalues --    2.47140   2.47780   2.47917   2.48348   2.49191
 Alpha virt. eigenvalues --    2.50615   2.50976   2.51193   2.51704   2.52786
 Alpha virt. eigenvalues --    2.54193   2.54446   2.54920   2.56143   2.56519
 Alpha virt. eigenvalues --    2.56914   2.57374   2.58000   2.59258   2.60679
 Alpha virt. eigenvalues --    2.60790   2.61979   2.62479   2.62777   2.63287
 Alpha virt. eigenvalues --    2.63718   2.64016   2.65347   2.65448   2.66181
 Alpha virt. eigenvalues --    2.67026   2.67674   2.68393   2.68858   2.69305
 Alpha virt. eigenvalues --    2.70303   2.70833   2.73057   2.73713   2.74199
 Alpha virt. eigenvalues --    2.74560   2.74626   2.76073   2.76744   2.77413
 Alpha virt. eigenvalues --    2.78432   2.78611   2.79042   2.79585   2.80455
 Alpha virt. eigenvalues --    2.81011   2.81898   2.82447   2.82938   2.84543
 Alpha virt. eigenvalues --    2.85333   2.88406   2.89009   2.90268   2.92975
 Alpha virt. eigenvalues --    2.93913   2.94915   2.96807   2.97376   2.98052
 Alpha virt. eigenvalues --    3.00369   3.01499   3.03496   3.03940   3.05722
 Alpha virt. eigenvalues --    3.06428   3.06676   3.08108   3.08276   3.10465
 Alpha virt. eigenvalues --    3.10999   3.11637   3.12150   3.12519   3.13789
 Alpha virt. eigenvalues --    3.14159   3.14611   3.15376   3.15462   3.15864
 Alpha virt. eigenvalues --    3.16784   3.17061   3.17375   3.17872   3.20158
 Alpha virt. eigenvalues --    3.20487   3.21604   3.22483   3.22794   3.23459
 Alpha virt. eigenvalues --    3.23940   3.24711   3.26482   3.27312   3.27983
 Alpha virt. eigenvalues --    3.28833   3.29517   3.29594   3.30019   3.30880
 Alpha virt. eigenvalues --    3.31897   3.32507   3.32809   3.33267   3.33992
 Alpha virt. eigenvalues --    3.34070   3.35533   3.38606   3.42164   3.43715
 Alpha virt. eigenvalues --    3.47002   3.50372   3.52440   3.53400   3.58002
 Alpha virt. eigenvalues --    3.61892   3.62970   3.70692   3.75157   3.94724
 Alpha virt. eigenvalues --    3.96747   3.98624   4.00276   4.04565   4.09291
 Alpha virt. eigenvalues --    4.16588   4.18588   4.19595   4.21517   4.21607
 Alpha virt. eigenvalues --    4.23364   4.24039   4.25662   4.27216   4.27774
 Alpha virt. eigenvalues --    4.28089   4.28680   4.29652   4.30131   4.32651
 Alpha virt. eigenvalues --    4.33560   4.35269   4.39116   4.39751   4.41178
 Alpha virt. eigenvalues --    4.42694   4.43403   4.44145   4.45946   4.47049
 Alpha virt. eigenvalues --    4.48797   4.51372   4.54289   4.63223   4.81616
 Alpha virt. eigenvalues --    5.46529   5.60148   5.65743   5.82597   5.95848
 Alpha virt. eigenvalues --    5.99456   6.08685   6.11780   6.12667   6.22516
 Alpha virt. eigenvalues --    6.50631   6.68596   6.69613   6.69739   6.70332
 Alpha virt. eigenvalues --    6.72164   6.72476   6.72919   6.73395   6.73956
 Alpha virt. eigenvalues --    6.74497   6.75524   6.75847   6.77199   6.79090
 Alpha virt. eigenvalues --    6.82816   6.84428   6.85724   6.90223   6.91206
 Alpha virt. eigenvalues --    6.91551   6.92441   6.92951   6.94353   6.94809
 Alpha virt. eigenvalues --    6.95345   6.95602   6.98413   6.98668   6.99862
 Alpha virt. eigenvalues --    7.00365   7.01604   7.03054   7.03822   7.05117
 Alpha virt. eigenvalues --    7.06197   7.08346   7.10642   7.13626   7.24394
 Alpha virt. eigenvalues --    7.63883   7.69527   7.71960   7.73588   7.75256
 Alpha virt. eigenvalues --    7.75398   8.49049   8.50140   8.50487   8.51003
 Alpha virt. eigenvalues --    8.51474   8.52369   8.54657   8.60955   8.71484
 Alpha virt. eigenvalues --    9.01259   9.83231   9.83459   9.85238   9.87255
 Alpha virt. eigenvalues --    9.89566   9.90159   9.95715   9.99837  10.02032
 Alpha virt. eigenvalues --   10.05281  10.05960  10.07368  10.10746  10.32869
 Alpha virt. eigenvalues --   14.02356  14.03138  14.14460  15.59353  16.71577
 Alpha virt. eigenvalues --   16.77079  16.91072  17.02321  17.04203  17.05054
 Alpha virt. eigenvalues --   17.06556  17.07851  17.08303  17.08492  17.11632
 Alpha virt. eigenvalues --   17.14689  17.15440  17.19224  17.19928  17.22094
 Alpha virt. eigenvalues --   17.23631  17.24501  17.32594  17.36017  17.45541
 Alpha virt. eigenvalues --   20.22527  20.28957  20.43285  21.05801  21.31480
 Alpha virt. eigenvalues --   21.32925  25.45661  25.55512  25.59011  26.17783
 Alpha virt. eigenvalues --   31.67146  31.69561  31.73227  31.74995  31.80161
 Alpha virt. eigenvalues --   42.98483  43.02250  43.02850  43.05409  43.21178
 Alpha virt. eigenvalues --   61.74858  61.85562  62.96283  65.08414  78.04162
 Alpha virt. eigenvalues --   78.09028  78.21288  82.22035  86.17131  86.38198
 Alpha virt. eigenvalues --   86.39243  89.27398  89.29670  89.31673  89.31992
 Alpha virt. eigenvalues --   89.33560  89.33997  89.34535  89.37875  89.40342
 Alpha virt. eigenvalues --   89.41229  89.45046  89.45347  89.47935  89.48800
 Alpha virt. eigenvalues --   89.50241  89.59394  89.63820  89.70294 112.67598
 Alpha virt. eigenvalues --  112.72081 112.81739 121.81264 121.88298 121.90678
 Alpha virt. eigenvalues --  239.14525 257.32762 282.42572 332.07328 332.18644
 Alpha virt. eigenvalues --  428.76862 428.93386 428.94243 431.65668 431.70864
 Alpha virt. eigenvalues --  431.83784 590.18927 590.24377 590.26136 773.00250
 Alpha virt. eigenvalues --  839.548531043.590052068.601352529.928235495.40082
 Alpha virt. eigenvalues -- 5634.45732******************************
          Condensed to atoms (all electrons):
 Mulliken charges:
               1
     1  Pt   0.291139
     2  P    0.069123
     3  P    0.195778
     4  C   -0.375244
     5  H    0.089332
     6  H    0.095961
     7  C   -0.174344
     8  H    0.109123
     9  H    0.138843
    10  H    0.111773
    11  C   -0.324881
    12  H    0.098330
    13  C   -0.308598
    14  H    0.109687
    15  H    0.088037
    16  C   -0.090018
    17  H    0.120092
    18  H    0.049798
    19  H    0.092351
    20  C   -0.370238
    21  H    0.111386
    22  H    0.079360
    23  C   -0.114322
    24  H    0.104908
    25  H    0.075253
    26  H    0.134794
    27  C   -0.415192
    28  H    0.084970
    29  H    0.080806
    30  C   -0.172449
    31  H    0.135746
    32  H    0.113782
    33  H    0.112338
    34  C   -0.422243
    35  H    0.104516
    36  H    0.092824
    37  C   -0.103773
    38  H    0.136210
    39  H    0.074936
    40  H    0.095738
    41  Sn   0.311762
    42  Cl  -0.281378
    43  Cl  -0.285807
    44  Cl  -0.223075
    45  C   -0.175276
    46  H    0.132295
    47  H    0.117318
    48  H    0.112445
    49  H    0.080493
    50  C    0.025865
    51  C   -0.157493
    52  C   -0.236233
    53  C   -0.541181
    54  H    0.049554
    55  C   -0.625365
    56  H    0.061955
    57  C    0.908215
    58  H    0.094024
    59  H    0.101885
    60  Br   0.204363
 Sum of Mulliken charges =   0.00000
 Mulliken charges with hydrogens summed into heavy atoms:
               1
     1  Pt   0.291139
     2  P    0.069123
     3  P    0.195778
     4  C   -0.189951
     7  C    0.185395
    11  C   -0.146057
    13  C   -0.110874
    16  C    0.172223
    20  C   -0.179492
    23  C    0.200632
    27  C   -0.249417
    30  C    0.189418
    34  C   -0.224903
    37  C    0.203111
    41  Sn   0.311762
    42  Cl  -0.281378
    43  Cl  -0.285807
    44  Cl  -0.223075
    45  C    0.186783
    50  C    0.025865
    51  C   -0.107938
    52  C   -0.174279
    53  C   -0.447157
    55  C   -0.523480
    57  C    0.908215
    60  Br   0.204363
 Electronic spatial extent (au):  <R**2>=          20535.6275
 Charge=              0.0000 electrons
 Dipole moment (field-independent basis, Debye):
    X=            -10.2175    Y=              0.4691    Z=              0.3329  Tot=             10.2336
 Quadrupole moment (field-independent basis, Debye-Ang):
   XX=           -332.1886   YY=           -222.8055   ZZ=           -249.2392
   XY=              6.7077   XZ=             -0.1542   YZ=             -1.8516
 Traceless Quadrupole moment (field-independent basis, Debye-Ang):
   XX=            -64.1109   YY=             45.2722   ZZ=             18.8386
   XY=              6.7077   XZ=             -0.1542   YZ=             -1.8516
 Octapole moment (field-independent basis, Debye-Ang**2):
  XXX=           -164.3880  YYY=              1.1717  ZZZ=              4.6782  XYY=            -28.5366
  XXY=              9.8723  XXZ=             -0.2708  XZZ=            -58.8406  YZZ=            -11.6485
  YYZ=             -8.3086  XYZ=             -0.1741
 Hexadecapole moment (field-independent basis, Debye-Ang**3):
 XXXX=         -16133.2376 YYYY=          -7564.5862 ZZZZ=          -2544.3301 XXXY=             54.0050
 XXXZ=              8.7237 YYYX=             50.9235 YYYZ=             -5.2648 ZZZX=             48.0618
 ZZZY=             -2.7371 XXYY=          -3826.7360 XXZZ=          -2897.4860 YYZZ=          -1677.7687
 XXYZ=            -26.5857 YYXZ=            -23.0457 ZZXY=            -42.2991
 N-N= 8.518447957695D+03 E-N=-8.435874501951D+04  KE= 2.801398577655D+04
 Calculating spin-rotation constants.
 Leave Link  601 at Mon Nov  4 10:23:07 2019, MaxMem=   939524096 cpu:       319.7
 (Enter /scr/programas/g09/l9999.exe)
 1\1\GINC-NQTCM\SP\RPBEPBE\Gen\C18H34Br1Cl3P2Pt1Sn1\NQTCM\04-Nov-2019\0
 \\#PBEPBE/gen scf=(maxcycle=500,conver=4) NMR=GIAO Scrf=(solvent=Dichl
 oromethane)\\estrutura 74\\0,1\Pt,0,0.152674,-0.052431,-0.022822\P,0,0
 .239951,2.358901,-0.06763\P,0,-0.011433,-2.442832,0.109505\C,0,0.52893
 6,2.967459,1.659224\H,0,1.38899,2.385984,2.025898\H,0,-0.34412,2.62863
 4,2.240528\C,0,0.779931,4.464922,1.859186\H,0,-0.03849,5.088074,1.4656
 06\H,0,0.873242,4.685077,2.935396\H,0,1.716509,4.787161,1.379224\C,0,1
 .670941,2.990793,-1.087273\H,0,1.811005,2.268017,-1.904786\C,0,-1.2313
 95,3.298406,-0.709137\H,0,-0.851797,4.280814,-1.02782\H,0,-1.553159,2.
 776511,-1.624554\C,0,-2.41447,3.498844,0.242428\H,0,-3.201367,4.072441
 ,-0.273124\H,0,-2.853602,2.549872,0.572307\H,0,-2.129281,4.071165,1.13
 7808\C,0,0.885147,-3.326971,-1.247395\H,0,0.761661,-4.409283,-1.078924
 \H,0,1.955432,-3.113217,-1.10437\C,0,0.425605,-2.930768,-2.652977\H,0,
 -0.636804,-3.169781,-2.821466\H,0,0.560299,-1.850422,-2.825455\H,0,1.0
 0992,-3.471404,-3.412971\C,0,-1.736181,-3.132005,0.068065\H,0,-2.23283
 5,-2.747674,0.973935\H,0,-2.254463,-2.650651,-0.776274\C,0,-1.861981,-
 4.656019,-0.014217\H,0,-2.921831,-4.945331,0.062816\H,0,-1.482964,-5.0
 5352,-0.967954\H,0,-1.327425,-5.167135,0.801912\C,0,0.707721,-3.137347
 ,1.672598\H,0,0.455338,-4.210278,1.6937\H,0,1.805055,-3.074157,1.58242
 \C,0,0.229502,-2.441523,2.951038\H,0,0.66516,-2.936501,3.834171\H,0,0.
 538153,-1.382735,2.970399\H,0,-0.867984,-2.473872,3.061821\Sn,0,2.8861
 52,-0.196903,-0.025349\Cl,0,4.107095,0.393656,-2.068532\Cl,0,4.061583,
 1.258247,1.573293\Cl,0,4.148588,-2.252986,0.428207\C,0,1.623173,4.4092
 58,-1.664095\H,0,2.583226,4.625716,-2.160605\H,0,0.834303,4.520583,-2.
 423086\H,0,1.468871,5.179581,-0.894258\H,0,2.548665,2.879964,-0.429891
 \C,0,-1.897806,0.042322,-0.036162\C,0,-2.642563,0.009337,1.156442\C,0,
 -2.606882,0.103726,-1.248804\C,0,-4.043745,0.034023,1.147449\H,0,-2.13
 2707,-0.037343,2.123123\C,0,-4.007551,0.130358,-1.278113\H,0,-2.070381
 ,0.126762,-2.201951\C,0,-4.716776,0.094207,-0.075069\H,0,-4.60069,0.00
 9662,2.086826\H,0,-4.536872,0.176434,-2.232321\Br,0,-6.632177,0.127967
 ,-0.105379\\Version=EM64L-G09RevD.01\State=1-A\HF=-28427.238686\RMSD=4
 .017e-05\Dipole=-4.0198617,0.1845398,0.1309692\Quadrupole=-47.6648489,
 33.6588053,14.0060436,4.9870188,-0.1146432,-1.3766342\PG=C01 [X(C18H34
 Br1Cl3P2Pt1Sn1)]\\@


 THE DIFFICULTY IN SCIENCE IS OFTEN NOT SO MUCH HOW
 TO MAKE A DISCOVERY BUT RATHER TO KNOW ONE HAS MADE IT.

                                                   -- J. D. BERNAL
 Job cpu time:       0 days 17 hours 23 minutes 54.3 seconds.
 File lengths (MBytes):  RWF=   1184 Int=      0 D2E=      0 Chk=     85 Scr=      1
 Normal termination of Gaussian 09 at Mon Nov  4 10:23:08 2019.
