 Entering Gaussian System, Link 0=g09
 Input=estrutura10.com
 Output=estrutura10.log
 Initial command:
 /scr/programs/g09/l1.exe "/scr/diego/Gau-18234.inp" -scrdir="/scr/diego/"
 Entering Link 1 = /scr/programs/g09/l1.exe PID=     18235.
  
 Copyright (c) 1988,1990,1992,1993,1995,1998,2003,2009,2013,
            Gaussian, Inc.  All Rights Reserved.
  
 This is part of the Gaussian(R) 09 program.  It is based on
 the Gaussian(R) 03 system (copyright 2003, Gaussian, Inc.),
 the Gaussian(R) 98 system (copyright 1998, Gaussian, Inc.),
 the Gaussian(R) 94 system (copyright 1995, Gaussian, Inc.),
 the Gaussian 92(TM) system (copyright 1992, Gaussian, Inc.),
 the Gaussian 90(TM) system (copyright 1990, Gaussian, Inc.),
 the Gaussian 88(TM) system (copyright 1988, Gaussian, Inc.),
 the Gaussian 86(TM) system (copyright 1986, Carnegie Mellon
 University), and the Gaussian 82(TM) system (copyright 1983,
 Carnegie Mellon University). Gaussian is a federally registered
 trademark of Gaussian, Inc.
  
 This software contains proprietary and confidential information,
 including trade secrets, belonging to Gaussian, Inc.
  
 This software is provided under written license and may be
 used, copied, transmitted, or stored only in accord with that
 written license.
  
 The following legend is applicable only to US Government
 contracts under FAR:
  
                    RESTRICTED RIGHTS LEGEND
  
 Use, reproduction and disclosure by the US Government is
 subject to restrictions as set forth in subparagraphs (a)
 and (c) of the Commercial Computer Software - Restricted
 Rights clause in FAR 52.227-19.
  
 Gaussian, Inc.
 340 Quinnipiac St., Bldg. 40, Wallingford CT 06492
  
  
 ---------------------------------------------------------------
 Warning -- This program may not be used in any manner that
 competes with the business of Gaussian, Inc. or will provide
 assistance to any competitor of Gaussian, Inc.  The licensee
 of this program is prohibited from giving any competitor of
 Gaussian, Inc. access to this program.  By using this program,
 the user acknowledges that Gaussian, Inc. is engaged in the
 business of creating and licensing software in the field of
 computational chemistry and represents and warrants to the
 licensee that it is not a competitor of Gaussian, Inc. and that
 it will not use this program in any manner prohibited above.
 ---------------------------------------------------------------
  

 Cite this work as:
 Gaussian 09, Revision D.01,
 M. J. Frisch, G. W. Trucks, H. B. Schlegel, G. E. Scuseria, 
 M. A. Robb, J. R. Cheeseman, G. Scalmani, V. Barone, B. Mennucci, 
 G. A. Petersson, H. Nakatsuji, M. Caricato, X. Li, H. P. Hratchian, 
 A. F. Izmaylov, J. Bloino, G. Zheng, J. L. Sonnenberg, M. Hada, 
 M. Ehara, K. Toyota, R. Fukuda, J. Hasegawa, M. Ishida, T. Nakajima, 
 Y. Honda, O. Kitao, H. Nakai, T. Vreven, J. A. Montgomery, Jr., 
 J. E. Peralta, F. Ogliaro, M. Bearpark, J. J. Heyd, E. Brothers, 
 K. N. Kudin, V. N. Staroverov, T. Keith, R. Kobayashi, J. Normand, 
 K. Raghavachari, A. Rendell, J. C. Burant, S. S. Iyengar, J. Tomasi, 
 M. Cossi, N. Rega, J. M. Millam, M. Klene, J. E. Knox, J. B. Cross, 
 V. Bakken, C. Adamo, J. Jaramillo, R. Gomperts, R. E. Stratmann, 
 O. Yazyev, A. J. Austin, R. Cammi, C. Pomelli, J. W. Ochterski, 
 R. L. Martin, K. Morokuma, V. G. Zakrzewski, G. A. Voth, 
 P. Salvador, J. J. Dannenberg, S. Dapprich, A. D. Daniels, 
 O. Farkas, J. B. Foresman, J. V. Ortiz, J. Cioslowski, 
 and D. J. Fox, Gaussian, Inc., Wallingford CT, 2013.
 
 ******************************************
 Gaussian 09:  EM64L-G09RevD.01 24-Apr-2013
                 8-Sep-2018 
 ******************************************
 %mem=15Gb
 %nproc=8
 Will use up to    8 processors via shared memory.
 ----------------------------------------------------------------------
 #PBEPBE/gen scf=(maxcycle=1000,conver=4) NMR=GIAO Scrf=(solvent=Dichlo
 romethane)
 ----------------------------------------------------------------------
 1/38=1/1;
 2/12=2,17=6,18=5,40=1/2;
 3/5=7,11=2,16=1,25=1,30=1,70=2201,72=9,74=1009/1,2,8,3;
 4//1;
 5/5=2,6=4,7=1000,38=5,53=9/2;
 8/6=1,10=90,11=11/1;
 10/13=100,45=16/2;
 6/7=2,8=2,9=2,10=2,28=1/1;
 99/9=1/99;
 Leave Link    1 at Sat Sep  8 19:57:25 2018, MaxMem=  2013265920 cpu:         0.4
 (Enter /scr/programs/g09/l101.exe)
 ------------
 estrutura 10
 ------------
 Symbolic Z-matrix:
 Charge =  0 Multiplicity = 1
 Pt                    0.00404  -0.01007  -0.0423 
 Sn                   -1.08184  -2.42838  -0.3833 
 Sn                    1.27546   2.25688  -0.63204 
 Cl                    3.2582    1.91022  -2.00422 
 Cl                    2.11916   3.56461   1.23661 
 Cl                    0.44105   4.09244  -1.97243 
 Cl                    0.23201  -4.45198  -0.70009 
 Cl                   -2.34437  -2.62997  -2.4471 
 Cl                   -2.60857  -3.32071   1.28598 
 C                     3.45252   0.11751   1.11918 
 H                     3.83527   0.6379    0.22725 
 H                     2.9504    0.8818    1.73084 
 C                     2.82774  -1.84107  -1.03748 
 H                     2.09292  -2.61494  -1.31117 
 H                     2.76931  -1.05952  -1.81258 
 C                     1.94828  -2.35313   1.77674 
 H                     1.56828  -3.23697   1.242 
 H                     2.95867  -2.61802   2.12675 
 C                    -3.62487  -0.09521  -0.16589 
 H                    -3.42382  -0.62076  -1.11263 
 H                    -3.5246   -0.84769   0.63068 
 C                    -2.54113   2.39329  -1.2742 
 H                    -3.34654   1.98957  -1.90755 
 H                    -1.64862   2.43962  -1.91051 
 C                    -2.18869   1.80186   1.72814 
 H                    -2.04935   2.88902   1.61839 
 H                    -1.2639    1.42949   2.19729 
 C                     4.62597  -0.48117   1.91226 
 H                     5.086    -1.31302   1.35824 
 H                     4.26166  -0.90477   2.86039 
 C                     1.02708  -2.03438   2.96834 
 H                     0.90983  -2.97317   3.53659 
 H                     0.01946  -1.78829   2.59358 
 C                     4.23768  -2.44664  -1.01026 
 H                     4.33844  -3.15436  -0.17082 
 H                     4.98141  -1.64946  -0.84481 
 C                    -5.06485   0.4377   -0.2064 
 H                    -5.33761   0.88915   0.75797 
 H                    -5.16037   1.23333  -0.96082 
 C                    -2.88665   3.81784  -0.80565 
 H                    -2.73747   4.47792  -1.67612 
 H                    -2.14189   4.16014  -0.06846 
 C                    -3.37024   1.50458   2.66301 
 H                    -4.29418   1.94626   2.26166 
 H                    -3.54242   0.4163    2.71511 
 P                     2.1394   -1.0369    0.48063 
 P                    -2.18851   1.06877   0.00407 
 C                    -6.05261  -0.68548  -0.53895 
 H                    -7.08809  -0.30899  -0.54942 
 H                    -5.84116  -1.12154  -1.52903 
 H                    -5.99565  -1.50148   0.2004 
 C                    -3.12392   2.04726   4.07264 
 H                    -2.98149   3.13995   4.06211 
 H                    -3.97726   1.8251    4.73119 
 H                    -2.2247    1.59769   4.52328 
 C                    -4.30178   4.01666  -0.26346 
 H                    -4.53415   3.32443   0.55999 
 H                    -4.43332   5.0394    0.11871 
 H                    -5.05519   3.85513  -1.04999 
 C                     4.55816  -3.16724  -2.32304 
 H                     5.58538  -3.56276  -2.31718 
 H                     3.87065  -4.01233  -2.4902 
 H                     4.46557  -2.4859   -3.18324 
 C                     1.49452  -0.93189   3.91893 
 H                     1.52298   0.05607   3.4333 
 H                     0.80867  -0.8525    4.77628 
 H                     2.49795  -1.13925   4.32144 
 C                     5.69182   0.57718   2.21029 
 H                     5.2725    1.41837   2.78699 
 H                     6.51963   0.14575   2.79529 
 H                     6.11623   0.99134   1.28064 
 
 NAtoms=     71 NQM=       71 NQMF=       0 NMMI=      0 NMMIF=      0
                NMic=       0 NMicF=      0.
                    Isotopes and Nuclear Properties:
 (Nuclear quadrupole moments (NQMom) in fm**2, nuclear magnetic moments (NMagM)
  in nuclear magnetons)

  Atom         1           2           3           4           5           6           7           8           9          10
 IAtWgt=         195         118         118          35          35          35          35          35          35          12
 AtmWgt= 194.9648000 117.9018000 117.9018000  34.9688527  34.9688527  34.9688527  34.9688527  34.9688527  34.9688527  12.0000000
 NucSpn=           1           0           0           3           3           3           3           3           3           0
 AtZEff=   0.0000000   0.0000000   0.0000000   0.0000000   0.0000000   0.0000000   0.0000000   0.0000000   0.0000000   0.0000000
 NQMom=    0.0000000   0.0000000   0.0000000  -8.1650000  -8.1650000  -8.1650000  -8.1650000  -8.1650000  -8.1650000   0.0000000
 NMagM=    0.6095000   0.0000000   0.0000000   0.8218740   0.8218740   0.8218740   0.8218740   0.8218740   0.8218740   0.0000000
 AtZNuc=  78.0000000  50.0000000  50.0000000  17.0000000  17.0000000  17.0000000  17.0000000  17.0000000  17.0000000   6.0000000

  Atom        11          12          13          14          15          16          17          18          19          20
 IAtWgt=           1           1          12           1           1          12           1           1          12           1
 AtmWgt=   1.0078250   1.0078250  12.0000000   1.0078250   1.0078250  12.0000000   1.0078250   1.0078250  12.0000000   1.0078250
 NucSpn=           1           1           0           1           1           0           1           1           0           1
 AtZEff=   0.0000000   0.0000000   0.0000000   0.0000000   0.0000000   0.0000000   0.0000000   0.0000000   0.0000000   0.0000000
 NQMom=    0.0000000   0.0000000   0.0000000   0.0000000   0.0000000   0.0000000   0.0000000   0.0000000   0.0000000   0.0000000
 NMagM=    2.7928460   2.7928460   0.0000000   2.7928460   2.7928460   0.0000000   2.7928460   2.7928460   0.0000000   2.7928460
 AtZNuc=   1.0000000   1.0000000   6.0000000   1.0000000   1.0000000   6.0000000   1.0000000   1.0000000   6.0000000   1.0000000

  Atom        21          22          23          24          25          26          27          28          29          30
 IAtWgt=           1          12           1           1          12           1           1          12           1           1
 AtmWgt=   1.0078250  12.0000000   1.0078250   1.0078250  12.0000000   1.0078250   1.0078250  12.0000000   1.0078250   1.0078250
 NucSpn=           1           0           1           1           0           1           1           0           1           1
 AtZEff=   0.0000000   0.0000000   0.0000000   0.0000000   0.0000000   0.0000000   0.0000000   0.0000000   0.0000000   0.0000000
 NQMom=    0.0000000   0.0000000   0.0000000   0.0000000   0.0000000   0.0000000   0.0000000   0.0000000   0.0000000   0.0000000
 NMagM=    2.7928460   0.0000000   2.7928460   2.7928460   0.0000000   2.7928460   2.7928460   0.0000000   2.7928460   2.7928460
 AtZNuc=   1.0000000   6.0000000   1.0000000   1.0000000   6.0000000   1.0000000   1.0000000   6.0000000   1.0000000   1.0000000

  Atom        31          32          33          34          35          36          37          38          39          40
 IAtWgt=          12           1           1          12           1           1          12           1           1          12
 AtmWgt=  12.0000000   1.0078250   1.0078250  12.0000000   1.0078250   1.0078250  12.0000000   1.0078250   1.0078250  12.0000000
 NucSpn=           0           1           1           0           1           1           0           1           1           0
 AtZEff=   0.0000000   0.0000000   0.0000000   0.0000000   0.0000000   0.0000000   0.0000000   0.0000000   0.0000000   0.0000000
 NQMom=    0.0000000   0.0000000   0.0000000   0.0000000   0.0000000   0.0000000   0.0000000   0.0000000   0.0000000   0.0000000
 NMagM=    0.0000000   2.7928460   2.7928460   0.0000000   2.7928460   2.7928460   0.0000000   2.7928460   2.7928460   0.0000000
 AtZNuc=   6.0000000   1.0000000   1.0000000   6.0000000   1.0000000   1.0000000   6.0000000   1.0000000   1.0000000   6.0000000

  Atom        41          42          43          44          45          46          47          48          49          50
 IAtWgt=           1           1          12           1           1          31          31          12           1           1
 AtmWgt=   1.0078250   1.0078250  12.0000000   1.0078250   1.0078250  30.9737634  30.9737634  12.0000000   1.0078250   1.0078250
 NucSpn=           1           1           0           1           1           1           1           0           1           1
 AtZEff=   0.0000000   0.0000000   0.0000000   0.0000000   0.0000000   0.0000000   0.0000000   0.0000000   0.0000000   0.0000000
 NQMom=    0.0000000   0.0000000   0.0000000   0.0000000   0.0000000   0.0000000   0.0000000   0.0000000   0.0000000   0.0000000
 NMagM=    2.7928460   2.7928460   0.0000000   2.7928460   2.7928460   1.1316000   1.1316000   0.0000000   2.7928460   2.7928460
 AtZNuc=   1.0000000   1.0000000   6.0000000   1.0000000   1.0000000  15.0000000  15.0000000   6.0000000   1.0000000   1.0000000

  Atom        51          52          53          54          55          56          57          58          59          60
 IAtWgt=           1          12           1           1           1          12           1           1           1          12
 AtmWgt=   1.0078250  12.0000000   1.0078250   1.0078250   1.0078250  12.0000000   1.0078250   1.0078250   1.0078250  12.0000000
 NucSpn=           1           0           1           1           1           0           1           1           1           0
 AtZEff=   0.0000000   0.0000000   0.0000000   0.0000000   0.0000000   0.0000000   0.0000000   0.0000000   0.0000000   0.0000000
 NQMom=    0.0000000   0.0000000   0.0000000   0.0000000   0.0000000   0.0000000   0.0000000   0.0000000   0.0000000   0.0000000
 NMagM=    2.7928460   0.0000000   2.7928460   2.7928460   2.7928460   0.0000000   2.7928460   2.7928460   2.7928460   0.0000000
 AtZNuc=   1.0000000   6.0000000   1.0000000   1.0000000   1.0000000   6.0000000   1.0000000   1.0000000   1.0000000   6.0000000

  Atom        61          62          63          64          65          66          67          68          69          70
 IAtWgt=           1           1           1          12           1           1           1          12           1           1
 AtmWgt=   1.0078250   1.0078250   1.0078250  12.0000000   1.0078250   1.0078250   1.0078250  12.0000000   1.0078250   1.0078250
 NucSpn=           1           1           1           0           1           1           1           0           1           1
 AtZEff=   0.0000000   0.0000000   0.0000000   0.0000000   0.0000000   0.0000000   0.0000000   0.0000000   0.0000000   0.0000000
 NQMom=    0.0000000   0.0000000   0.0000000   0.0000000   0.0000000   0.0000000   0.0000000   0.0000000   0.0000000   0.0000000
 NMagM=    2.7928460   2.7928460   2.7928460   0.0000000   2.7928460   2.7928460   2.7928460   0.0000000   2.7928460   2.7928460
 AtZNuc=   1.0000000   1.0000000   1.0000000   6.0000000   1.0000000   1.0000000   1.0000000   6.0000000   1.0000000   1.0000000

  Atom        71
 IAtWgt=           1
 AtmWgt=   1.0078250
 NucSpn=           1
 AtZEff=   0.0000000
 NQMom=    0.0000000
 NMagM=    2.7928460
 AtZNuc=   1.0000000
 Leave Link  101 at Sat Sep  8 19:57:25 2018, MaxMem=  2013265920 cpu:         1.4
 (Enter /scr/programs/g09/l202.exe)
 Stoichiometry    C18H42Cl6P2PtSn2
 Framework group  C1[X(C18H42Cl6P2PtSn2)]
 Deg. of freedom   207
 Full point group                 C1      NOp   1
 Largest Abelian subgroup         C1      NOp   1
 Largest concise Abelian subgroup C1      NOp   1
                         Standard orientation:                         
 ---------------------------------------------------------------------
 Center     Atomic      Atomic             Coordinates (Angstroms)
 Number     Number       Type             X           Y           Z
 ---------------------------------------------------------------------
      1         78           0        0.004039   -0.010068   -0.042297
      2         50           0       -1.081844   -2.428383   -0.383304
      3         50           0        1.275462    2.256881   -0.632042
      4         17           0        3.258204    1.910221   -2.004222
      5         17           0        2.119163    3.564606    1.236609
      6         17           0        0.441053    4.092444   -1.972433
      7         17           0        0.232006   -4.451981   -0.700089
      8         17           0       -2.344372   -2.629972   -2.447096
      9         17           0       -2.608570   -3.320709    1.285984
     10          6           0        3.452521    0.117509    1.119175
     11          1           0        3.835272    0.637900    0.227251
     12          1           0        2.950404    0.881804    1.730842
     13          6           0        2.827737   -1.841069   -1.037478
     14          1           0        2.092920   -2.614935   -1.311175
     15          1           0        2.769305   -1.059524   -1.812575
     16          6           0        1.948277   -2.353129    1.776742
     17          1           0        1.568284   -3.236970    1.242004
     18          1           0        2.958667   -2.618022    2.126751
     19          6           0       -3.624868   -0.095212   -0.165887
     20          1           0       -3.423816   -0.620761   -1.112626
     21          1           0       -3.524596   -0.847687    0.630683
     22          6           0       -2.541133    2.393289   -1.274195
     23          1           0       -3.346543    1.989565   -1.907551
     24          1           0       -1.648617    2.439619   -1.910508
     25          6           0       -2.188693    1.801858    1.728140
     26          1           0       -2.049346    2.889024    1.618387
     27          1           0       -1.263902    1.429494    2.197292
     28          6           0        4.625969   -0.481173    1.912258
     29          1           0        5.085998   -1.313020    1.358236
     30          1           0        4.261657   -0.904768    2.860388
     31          6           0        1.027078   -2.034383    2.968342
     32          1           0        0.909833   -2.973169    3.536587
     33          1           0        0.019457   -1.788294    2.593578
     34          6           0        4.237680   -2.446641   -1.010257
     35          1           0        4.338444   -3.154362   -0.170820
     36          1           0        4.981408   -1.649460   -0.844806
     37          6           0       -5.064847    0.437704   -0.206401
     38          1           0       -5.337614    0.889151    0.757972
     39          1           0       -5.160371    1.233327   -0.960823
     40          6           0       -2.886652    3.817843   -0.805649
     41          1           0       -2.737468    4.477921   -1.676117
     42          1           0       -2.141892    4.160138   -0.068456
     43          6           0       -3.370237    1.504583    2.663011
     44          1           0       -4.294181    1.946257    2.261663
     45          1           0       -3.542423    0.416303    2.715110
     46         15           0        2.139397   -1.036900    0.480625
     47         15           0       -2.188511    1.068773    0.004069
     48          6           0       -6.052606   -0.685481   -0.538948
     49          1           0       -7.088085   -0.308986   -0.549416
     50          1           0       -5.841163   -1.121539   -1.529034
     51          1           0       -5.995646   -1.501478    0.200396
     52          6           0       -3.123925    2.047260    4.072645
     53          1           0       -2.981490    3.139946    4.062108
     54          1           0       -3.977257    1.825098    4.731187
     55          1           0       -2.224698    1.597689    4.523277
     56          6           0       -4.301776    4.016655   -0.263455
     57          1           0       -4.534148    3.324427    0.559994
     58          1           0       -4.433324    5.039400    0.118714
     59          1           0       -5.055190    3.855133   -1.049994
     60          6           0        4.558160   -3.167245   -2.323036
     61          1           0        5.585383   -3.562762   -2.317178
     62          1           0        3.870652   -4.012328   -2.490203
     63          1           0        4.465571   -2.485897   -3.183237
     64          6           0        1.494519   -0.931893    3.918929
     65          1           0        1.522983    0.056071    3.433303
     66          1           0        0.808670   -0.852497    4.776275
     67          1           0        2.497945   -1.139248    4.321444
     68          6           0        5.691820    0.577184    2.210293
     69          1           0        5.272495    1.418373    2.786986
     70          1           0        6.519634    0.145745    2.795286
     71          1           0        6.116231    0.991336    1.280638
 ---------------------------------------------------------------------
 Rotational constants (GHZ):      0.0765118      0.0690010      0.0489686
 Leave Link  202 at Sat Sep  8 19:57:25 2018, MaxMem=  2013265920 cpu:         0.0
 (Enter /scr/programs/g09/l301.exe)
 General basis read from cards:  (5D, 7F)
 Centers:      11     12     14     15     17     18     20     21     23     24
 Centers:      26     27     29     30     32     33     35     36     38     39
 Centers:      41     42     44     45     49     50     51     53     54     55
 Centers:      57     58     59     61     62     63     65     66     67     69
 Centers:      70     71
 S 5 1.00
     Exponent=  2.8295215633D+02 Coefficients=  4.3000000000D-04
     Exponent=  8.7062201949D+01 Coefficients=  5.1000000000D-04
     Exponent=  2.6788369830D+01 Coefficients=  6.1600000000D-03
     Exponent=  8.2425753324D+00 Coefficients=  1.3030000000D-02
     Exponent=  2.5361770254D+00 Coefficients=  9.9490000000D-02
 S 1 1.00
     Exponent=  7.8036216165D-01 Coefficients=  1.0000000000D+00
 S 1 1.00
     Exponent=  2.4011143435D-01 Coefficients=  1.0000000000D+00
 P 1 1.00
     Exponent=  8.8150000000D-01 Coefficients=  1.0000000000D+00
 P 1 1.00
     Exponent=  1.7989200000D-01 Coefficients=  1.0000000000D+00
 ****
 Centers:      10     13     16     19     22     25     28     31     34     37
 Centers:      40     43     48     52     56     60     64     68
 S 6 1.00
     Exponent=  8.8461235339D+03 Coefficients=  5.3000000000D-04
     Exponent=  2.9487078446D+03 Coefficients=  7.7000000000D-04
     Exponent=  9.8290261488D+02 Coefficients=  4.0500000000D-03
     Exponent=  3.2763420496D+02 Coefficients=  1.4030000000D-02
     Exponent=  1.0921140165D+02 Coefficients=  5.3450000000D-02
     Exponent=  3.6403800551D+01 Coefficients=  1.7027000000D-01
 S 1 1.00
     Exponent=  1.2134600184D+01 Coefficients=  1.0000000000D+00
 S 1 1.00
     Exponent=  4.0448667279D+00 Coefficients=  1.0000000000D+00
 S 1 1.00
     Exponent=  1.3482889093D+00 Coefficients=  1.0000000000D+00
 S 1 1.00
     Exponent=  4.4942963643D-01 Coefficients=  1.0000000000D+00
 S 1 1.00
     Exponent=  1.4980987881D-01 Coefficients=  1.0000000000D+00
 P 4 1.00
     Exponent=  3.7294093393D+01 Coefficients=  3.9600000000D-03
     Exponent=  1.1475105659D+01 Coefficients=  1.8890000000D-02
     Exponent=  3.5308017414D+00 Coefficients=  9.4610000000D-02
     Exponent=  1.0864005358D+00 Coefficients=  3.1889000000D-01
 P 1 1.00
     Exponent=  3.3427708794D-01 Coefficients=  1.0000000000D+00
 P 1 1.00
     Exponent=  1.0285448860D-01 Coefficients=  1.0000000000D+00
 D 1 1.00
     Exponent=  4.7750000000D-01 Coefficients=  1.0000000000D+00
 D 1 1.00
     Exponent=  1.1998000000D-01 Coefficients=  1.0000000000D+00
 ****
 Centers:      46     47
 S 7 1.00
     Exponent=  5.9538004301D+04 Coefficients=  9.5000000000D-04
     Exponent=  2.1650183382D+04 Coefficients=  6.1000000000D-04
     Exponent=  7.8727939572D+03 Coefficients=  3.7500000000D-03
     Exponent=  2.8628341663D+03 Coefficients=  9.6300000000D-03
     Exponent=  1.0410306059D+03 Coefficients=  3.2430000000D-02
     Exponent=  3.7855658397D+02 Coefficients=  9.9500000000D-02
     Exponent=  1.3765693962D+02 Coefficients=  2.6570000000D-01
 S 1 1.00
     Exponent=  5.0057068954D+01 Coefficients=  1.0000000000D+00
 S 1 1.00
     Exponent=  1.8202570529D+01 Coefficients=  1.0000000000D+00
 S 1 1.00
     Exponent=  6.6191165560D+00 Coefficients=  1.0000000000D+00
 S 1 1.00
     Exponent=  2.4069514749D+00 Coefficients=  1.0000000000D+00
 S 1 1.00
     Exponent=  8.7525508178D-01 Coefficients=  1.0000000000D+00
 S 1 1.00
     Exponent=  3.1827457519D-01 Coefficients=  1.0000000000D+00
 S 1 1.00
     Exponent=  1.1573620916D-01 Coefficients=  1.0000000000D+00
 S 1 1.00
     Exponent=  4.2085894240D-02 Coefficients=  1.0000000000D+00
 P 5 1.00
     Exponent=  4.8799672315D+02 Coefficients=  2.1600000000D-03
     Exponent=  1.6266557438D+02 Coefficients=  9.7900000000D-03
     Exponent=  5.4221858128D+01 Coefficients=  5.4850000000D-02
     Exponent=  1.8073952709D+01 Coefficients=  2.1770000000D-01
     Exponent=  6.0246509031D+00 Coefficients=  4.8978000000D-01
 P 1 1.00
     Exponent=  2.0082169677D+00 Coefficients=  1.0000000000D+00
 P 1 1.00
     Exponent=  6.6940565590D-01 Coefficients=  1.0000000000D+00
 P 1 1.00
     Exponent=  2.2313521863D-01 Coefficients=  1.0000000000D+00
 P 1 1.00
     Exponent=  7.4378406211D-02 Coefficients=  1.0000000000D+00
 P 1 1.00
     Exponent=  2.4792802070D-02 Coefficients=  1.0000000000D+00
 D 1 1.00
     Exponent=  3.5395000000D-01 Coefficients=  1.0000000000D+00
 D 1 1.00
     Exponent=  8.9098000000D-02 Coefficients=  1.0000000000D+00
 ****
 Centers:       4      5      6      7      8      9
 S 7 1.00
     Exponent=  7.7142817164D+04 Coefficients=  1.0600000000D-03
     Exponent=  2.8051933514D+04 Coefficients=  6.4000000000D-04
     Exponent=  1.0200703096D+04 Coefficients=  3.9600000000D-03
     Exponent=  3.7093465804D+03 Coefficients=  9.8300000000D-03
     Exponent=  1.3488533020D+03 Coefficients=  3.2690000000D-02
     Exponent=  4.9049210981D+02 Coefficients=  9.9520000000D-02
     Exponent=  1.7836076720D+02 Coefficients=  2.6555000000D-01
 S 1 1.00
     Exponent=  6.4858460801D+01 Coefficients=  1.0000000000D+00
 S 1 1.00
     Exponent=  2.3584894837D+01 Coefficients=  1.0000000000D+00
 S 1 1.00
     Exponent=  8.5763253951D+00 Coefficients=  1.0000000000D+00
 S 1 1.00
     Exponent=  3.1186637801D+00 Coefficients=  1.0000000000D+00
 S 1 1.00
     Exponent=  1.1340595564D+00 Coefficients=  1.0000000000D+00
 S 1 1.00
     Exponent=  4.1238529323D-01 Coefficients=  1.0000000000D+00
 S 1 1.00
     Exponent=  1.4995828845D-01 Coefficients=  1.0000000000D+00
 S 1 1.00
     Exponent=  5.4530286708D-02 Coefficients=  1.0000000000D+00
 P 5 1.00
     Exponent=  6.9498536057D+02 Coefficients=  2.0000000000D-03
     Exponent=  2.3166178686D+02 Coefficients=  8.9500000000D-03
     Exponent=  7.7220595619D+01 Coefficients=  5.1130000000D-02
     Exponent=  2.5740198540D+01 Coefficients=  2.1011000000D-01
     Exponent=  8.5800661799D+00 Coefficients=  4.9738000000D-01
 P 1 1.00
     Exponent=  2.8600220600D+00 Coefficients=  1.0000000000D+00
 P 1 1.00
     Exponent=  9.5334068665D-01 Coefficients=  1.0000000000D+00
 P 1 1.00
     Exponent=  3.1778022888D-01 Coefficients=  1.0000000000D+00
 P 1 1.00
     Exponent=  1.0592674296D-01 Coefficients=  1.0000000000D+00
 P 1 1.00
     Exponent=  3.5308914320D-02 Coefficients=  1.0000000000D+00
 D 1 1.00
     Exponent=  5.5696000000D-01 Coefficients=  1.0000000000D+00
 D 1 1.00
     Exponent=  1.5619100000D-01 Coefficients=  1.0000000000D+00
 ****
 Centers:       2      3
 S 8 1.00
     Exponent=  7.5448214551D+05 Coefficients=  4.4300000000D-03
     Exponent=  3.3532539800D+05 Coefficients=  1.9800000000D-03
     Exponent=  1.4903351022D+05 Coefficients=  9.0500000000D-03
     Exponent=  6.6237115655D+04 Coefficients=  4.8700000000D-03
     Exponent=  2.9438718069D+04 Coefficients=  2.0770000000D-02
     Exponent=  1.3083874697D+04 Coefficients=  3.2900000000D-02
     Exponent=  5.8150554210D+03 Coefficients=  7.7010000000D-02
     Exponent=  2.5844690760D+03 Coefficients=  1.5160000000D-01
 S 1 1.00
     Exponent=  1.1486529227D+03 Coefficients=  1.0000000000D+00
 S 1 1.00
     Exponent=  5.1051241008D+02 Coefficients=  1.0000000000D+00
 S 1 1.00
     Exponent=  2.2689440448D+02 Coefficients=  1.0000000000D+00
 S 1 1.00
     Exponent=  1.0084195755D+02 Coefficients=  1.0000000000D+00
 S 1 1.00
     Exponent=  4.4818647798D+01 Coefficients=  1.0000000000D+00
 S 1 1.00
     Exponent=  1.9919399021D+01 Coefficients=  1.0000000000D+00
 S 1 1.00
     Exponent=  8.8530662317D+00 Coefficients=  1.0000000000D+00
 S 1 1.00
     Exponent=  3.9346961030D+00 Coefficients=  1.0000000000D+00
 S 1 1.00
     Exponent=  1.7487538235D+00 Coefficients=  1.0000000000D+00
 S 1 1.00
     Exponent=  7.7722392158D-01 Coefficients=  1.0000000000D+00
 S 1 1.00
     Exponent=  3.4543285403D-01 Coefficients=  1.0000000000D+00
 S 1 1.00
     Exponent=  1.5352571290D-01 Coefficients=  1.0000000000D+00
 S 1 1.00
     Exponent=  6.8233650180D-02 Coefficients=  1.0000000000D+00
 S 1 1.00
     Exponent=  1.3478251887D-02 Coefficients=  1.0000000000D+00
 P 5 1.00
     Exponent=  1.0090658304D+04 Coefficients=  2.7500000000D-03
     Exponent=  4.0362633217D+03 Coefficients=  4.1800000000D-03
     Exponent=  1.6145053287D+03 Coefficients=  2.0890000000D-02
     Exponent=  6.4580213147D+02 Coefficients=  7.1370000000D-02
     Exponent=  2.5832085259D+02 Coefficients=  2.2613000000D-01
 P 1 1.00
     Exponent=  1.0332834104D+02 Coefficients=  1.0000000000D+00
 P 1 1.00
     Exponent=  4.1331336414D+01 Coefficients=  1.0000000000D+00
 P 1 1.00
     Exponent=  1.6532534566D+01 Coefficients=  1.0000000000D+00
 P 1 1.00
     Exponent=  6.6130138263D+00 Coefficients=  1.0000000000D+00
 P 1 1.00
     Exponent=  2.6452055305D+00 Coefficients=  1.0000000000D+00
 P 1 1.00
     Exponent=  1.0580822122D+00 Coefficients=  1.0000000000D+00
 P 1 1.00
     Exponent=  4.2323288488D-01 Coefficients=  1.0000000000D+00
 P 1 1.00
     Exponent=  1.6929315395D-01 Coefficients=  1.0000000000D+00
 P 1 1.00
     Exponent=  6.7717261581D-02 Coefficients=  1.0000000000D+00
 P 1 1.00
     Exponent=  2.7086904632D-02 Coefficients=  1.0000000000D+00
 P 1 1.00
     Exponent=  1.0834761853D-02 Coefficients=  1.0000000000D+00
 D 4 1.00
     Exponent=  5.5430250651D+02 Coefficients=  4.3700000000D-03
     Exponent=  2.0156454782D+02 Coefficients=  2.5110000000D-02
     Exponent=  7.3296199207D+01 Coefficients=  1.3316000000D-01
     Exponent=  2.6653163348D+01 Coefficients=  3.8900000000D-01
 D 1 1.00
     Exponent=  9.6920593993D+00 Coefficients=  1.0000000000D+00
 D 1 1.00
     Exponent=  3.5243852361D+00 Coefficients=  1.0000000000D+00
 D 1 1.00
     Exponent=  1.2815946313D+00 Coefficients=  1.0000000000D+00
 D 1 1.00
     Exponent=  4.6603441139D-01 Coefficients=  1.0000000000D+00
 D 1 1.00
     Exponent=  1.6946705869D-01 Coefficients=  1.0000000000D+00
 F 1 1.00
     Exponent=  1.3140000000D+00 Coefficients=  1.0000000000D+00
 F 1 1.00
     Exponent=  1.9993000000D-01 Coefficients=  1.0000000000D+00
 ****
 Centers:       1
 S 9 1.00
     Exponent=  2.1644816090D+06 Coefficients=  1.2320000000D-02
     Exponent=  1.0822408045D+06 Coefficients=  1.2970000000D-02
     Exponent=  5.4112040224D+05 Coefficients=  2.6370000000D-02
     Exponent=  2.7056020112D+05 Coefficients=  9.0400000000D-03
     Exponent=  1.3528010056D+05 Coefficients=  3.4980000000D-02
     Exponent=  6.7640050280D+04 Coefficients=  1.2220000000D-02
     Exponent=  3.3820025140D+04 Coefficients=  6.0520000000D-02
     Exponent=  1.6910012570D+04 Coefficients=  6.4930000000D-02
     Exponent=  8.4550062850D+03 Coefficients=  1.3819000000D-01
 S 1 1.00
     Exponent=  4.2275031425D+03 Coefficients=  1.0000000000D+00
 S 1 1.00
     Exponent=  2.1137515713D+03 Coefficients=  1.0000000000D+00
 S 1 1.00
     Exponent=  1.0568757856D+03 Coefficients=  1.0000000000D+00
 S 1 1.00
     Exponent=  5.2843789281D+02 Coefficients=  1.0000000000D+00
 S 1 1.00
     Exponent=  2.6421894641D+02 Coefficients=  1.0000000000D+00
 S 1 1.00
     Exponent=  1.3210947320D+02 Coefficients=  1.0000000000D+00
 S 1 1.00
     Exponent=  6.6054736602D+01 Coefficients=  1.0000000000D+00
 S 1 1.00
     Exponent=  3.3027368301D+01 Coefficients=  1.0000000000D+00
 S 1 1.00
     Exponent=  1.6513684150D+01 Coefficients=  1.0000000000D+00
 S 1 1.00
     Exponent=  8.2568420752D+00 Coefficients=  1.0000000000D+00
 S 1 1.00
     Exponent=  4.1284210376D+00 Coefficients=  1.0000000000D+00
 S 1 1.00
     Exponent=  2.0642105188D+00 Coefficients=  1.0000000000D+00
 S 1 1.00
     Exponent=  1.0321052594D+00 Coefficients=  1.0000000000D+00
 S 1 1.00
     Exponent=  5.1605262970D-01 Coefficients=  1.0000000000D+00
 S 1 1.00
     Exponent=  2.5802631485D-01 Coefficients=  1.0000000000D+00
 S 1 1.00
     Exponent=  1.2901315743D-01 Coefficients=  1.0000000000D+00
 S 1 1.00
     Exponent=  6.4506578713D-02 Coefficients=  1.0000000000D+00
 P 7 1.00
     Exponent=  3.2357915258D+04 Coefficients=  5.0200000000D-03
     Exponent=  1.4381295670D+04 Coefficients=  2.0200000000D-03
     Exponent=  6.3916869645D+03 Coefficients=  1.8070000000D-02
     Exponent=  2.8407497620D+03 Coefficients=  3.6620000000D-02
     Exponent=  1.2625554498D+03 Coefficients=  1.1172000000D-01
     Exponent=  5.6113575545D+02 Coefficients=  2.5586000000D-01
     Exponent=  2.4939366909D+02 Coefficients=  4.2608000000D-01
 P 1 1.00
     Exponent=  1.1084163071D+02 Coefficients=  1.0000000000D+00
 P 1 1.00
     Exponent=  4.9262946981D+01 Coefficients=  1.0000000000D+00
 P 1 1.00
     Exponent=  2.1894643103D+01 Coefficients=  1.0000000000D+00
 P 1 1.00
     Exponent=  9.7309524900D+00 Coefficients=  1.0000000000D+00
 P 1 1.00
     Exponent=  4.3248677733D+00 Coefficients=  1.0000000000D+00
 P 1 1.00
     Exponent=  1.9221634548D+00 Coefficients=  1.0000000000D+00
 P 1 1.00
     Exponent=  8.5429486881D-01 Coefficients=  1.0000000000D+00
 P 1 1.00
     Exponent=  3.7968660836D-01 Coefficients=  1.0000000000D+00
 P 1 1.00
     Exponent=  1.6874960372D-01 Coefficients=  1.0000000000D+00
 P 1 1.00
     Exponent=  7.4999823874D-02 Coefficients=  1.0000000000D+00
 P 1 1.00
     Exponent=  3.3333255055D-02 Coefficients=  1.0000000000D+00
 D 5 1.00
     Exponent=  1.9119003508D+03 Coefficients=  4.3300000000D-03
     Exponent=  7.6476014031D+02 Coefficients=  1.7780000000D-02
     Exponent=  3.0590405613D+02 Coefficients=  8.9710000000D-02
     Exponent=  1.2236162245D+02 Coefficients=  3.1123000000D-01
     Exponent=  4.8944648980D+01 Coefficients=  5.3206000000D-01
 D 1 1.00
     Exponent=  1.9577859592D+01 Coefficients=  1.0000000000D+00
 D 1 1.00
     Exponent=  7.8311438368D+00 Coefficients=  1.0000000000D+00
 D 1 1.00
     Exponent=  3.1324575347D+00 Coefficients=  1.0000000000D+00
 D 1 1.00
     Exponent=  1.2529830139D+00 Coefficients=  1.0000000000D+00
 D 1 1.00
     Exponent=  5.0119320556D-01 Coefficients=  1.0000000000D+00
 D 1 1.00
     Exponent=  2.0047728222D-01 Coefficients=  1.0000000000D+00
 D 1 1.00
     Exponent=  8.0190912889D-02 Coefficients=  1.0000000000D+00
 D 1 1.00
     Exponent=  3.2076365156D-02 Coefficients=  1.0000000000D+00
 F 4 1.00
     Exponent=  8.2289680979D+01 Coefficients=  6.1870000000D-02
     Exponent=  2.9923520356D+01 Coefficients=  2.4823000000D-01
     Exponent=  1.0881280130D+01 Coefficients=  4.9956000000D-01
     Exponent=  3.9568291380D+00 Coefficients=  4.0380000000D-01
 F 1 1.00
     Exponent=  1.4388469593D+00 Coefficients=  1.0000000000D+00
 F 1 1.00
     Exponent=  5.2321707610D-01 Coefficients=  1.0000000000D+00
 G 1 1.00
     Exponent=  2.6700000000D+00 Coefficients=  1.0000000000D+00
 G 1 1.00
     Exponent=  9.0960000000D-01 Coefficients=  1.0000000000D+00
 ****
 Ernie: Thresh=  0.10000D-02 Tol=  0.10000D-05 Strict=F.
 There are  1558 symmetry adapted cartesian basis functions of A   symmetry.
 There are  1452 symmetry adapted basis functions of A   symmetry.
  1452 basis functions,  2276 primitive gaussians,  1558 cartesian basis functions
   230 alpha electrons      230 beta electrons
       nuclear repulsion energy     12086.8826098449 Hartrees.
 IExCor= 1009 DFT=T Ex=PBE Corr=PBE ExCW=0 ScaHFX=  0.000000
 ScaDFX=  1.000000  1.000000  1.000000  1.000000 ScalE2=  1.000000  1.000000
 IRadAn=      0 IRanWt=     -1 IRanGd=            0 ICorTp=0 IEmpDi=  4
 NAtoms=   71 NActive=   71 NUniq=   71 SFac= 1.00D+00 NAtFMM=   60 NAOKFM=T Big=T
 Integral buffers will be    131072 words long.
 Raffenetti 2 integral format.
 Two-electron integral symmetry is turned on.
 ------------------------------------------------------------------------------
 Polarizable Continuum Model (PCM)
 =================================
 Model                : PCM (using non-symmetric T matrix).
 Atomic radii         : UFF (Universal Force Field).
 Polarization charges : Total charges.
 Charge compensation  : None.
 Solution method      : On-the-fly selection.
 Cavity type          : Scaled VdW (van der Waals Surface) (Alpha=1.100).
 Cavity algorithm     : GePol (No added spheres)
                        Default sphere list used, NSphG=   71.
                        Lebedev-Laikov grids with approx.  5.0 points / Ang**2.
                        Smoothing algorithm: Karplus/York (Gamma=1.0000).
                        Polarization charges: spherical gaussians, with
                                              point-specific exponents (IZeta= 3).
                        Self-potential: point-specific (ISelfS= 7).
                        Self-field    : sphere-specific E.n sum rule (ISelfD= 2).
 Solvent              : Dichloromethane, Eps=   8.930000 Eps(inf)=   2.028346
 ------------------------------------------------------------------------------
 GePol: Number of generator spheres                  =      71
 GePol: Total number of spheres                      =      71
 GePol: Number of exposed spheres                    =      71 (100.00%)
 GePol: Number of points                             =    4956
 GePol: Average weight of points                     =       0.14
 GePol: Minimum weight of points                     =   0.23D-10
 GePol: Maximum weight of points                     =    0.21838
 GePol: Number of points with low weight             =     315
 GePol: Fraction of low-weight points (<1% of avg)   =       6.36%
 GePol: Cavity surface area                          =    690.377 Ang**2
 GePol: Cavity volume                                =    825.719 Ang**3
 Leave Link  301 at Sat Sep  8 19:57:26 2018, MaxMem=  2013265920 cpu:         1.6
 (Enter /scr/programs/g09/l302.exe)
 NPDir=0 NMtPBC=     1 NCelOv=     1 NCel=       1 NClECP=     1 NCelD=      1
         NCelK=      1 NCelE2=     1 NClLst=     1 CellRange=     0.0.
 One-electron integrals computed using PRISM.
 NBasis=  1452 RedAO= T EigKep=  6.55D-06  NBF=  1452
 NBsUse=  1452 1.00D-06 EigRej= -1.00D+00 NBFU=  1452
 Precomputing XC quadrature grid using
 IXCGrd= 4 IRadAn=           0 IRanWt=          -1 IRanGd=           0 AccXCQ= 0.00D+00.
 Defaulting to unpruned grid for atomic number  78.
 Generated NRdTot=       0 NPtTot=           0 NUsed=           0 NTot=          32
 NSgBfM=  1345  1346  1347  1347  1347 MxSgAt=    71 MxSgA2=    71.
 Leave Link  302 at Sat Sep  8 19:57:36 2018, MaxMem=  2013265920 cpu:        83.0
 (Enter /scr/programs/g09/l308.exe)
 Leave Link  308 at Sat Sep  8 19:57:37 2018, MaxMem=  2013265920 cpu:         8.0
 (Enter /scr/programs/g09/l303.exe)
 DipDrv:  MaxL=1.
 Leave Link  303 at Sat Sep  8 19:57:38 2018, MaxMem=  2013265920 cpu:         4.8
 (Enter /scr/programs/g09/l401.exe)
 ExpMin= 1.08D-02 ExpMax= 2.16D+06 ExpMxC= 2.16D+06 IAcc=4 IRadAn=    199590 AccDes= 0.00D+00
 Harris functional with IExCor= 1009 and IRadAn=  199590 diagonalized for initial guess.
 HarFok:  IExCor= 1009 AccDes= 0.00D+00 IRadAn=    199590 IDoV= 1 UseB2=F ITyADJ=14
 ICtDFT=  3500011 ScaDFX=  1.000000  1.000000  1.000000  1.000000
 FoFCou: FMM=F IPFlag=           0 FMFlag=      100000 FMFlg1=        2001
         NFxFlg=           0 DoJE=T BraDBF=F KetDBF=T FulRan=T
         wScrn=  0.000000 ICntrl=     500 IOpCl=  0 I1Cent=   200000004 NGrid=           0
         NMat0=    1 NMatS0=      1 NMatT0=    0 NMatD0=    1 NMtDS0=    0 NMtDT0=    0
 Petite list used in FoFCou.
 Harris En= -33239.0498768148    
 JPrj=0 DoOrth=F DoCkMO=F.
 Leave Link  401 at Sat Sep  8 20:00:52 2018, MaxMem=  2013265920 cpu:      1548.0
 (Enter /scr/programs/g09/l502.exe)
 Closed shell SCF:
 Using DIIS extrapolation, IDIIS=  1040.
 Integral symmetry usage will be decided dynamically.
 IVT=     8312682 IEndB=     8312682 NGot=  2013265920 MDV=  2008384161
 LenX=  2008384161 LenY=  2005955239
 Requested convergence on RMS density matrix=1.00D-04 within1000 cycles.
 Requested convergence on MAX density matrix=1.00D-02.
 Requested convergence on             energy=1.00D-02.
 No special actions if energy rises.
 Fock matrices will be formed incrementally for  20 cycles.

 Cycle   1  Pass 1  IDiag  1:
 FoFJK:  IHMeth= 1 ICntrl=     500 DoSepK=F KAlg= 0 I1Cent=   0 FoldK=F
 IRaf= 670000000 NMat=   1 IRICut=       1 DoRegI=T DoRafI=F ISym2E= 0.
 FoFCou: FMM=T IPFlag=           0 FMFlag=      100000 FMFlg1=        2001
         NFxFlg=           0 DoJE=T BraDBF=F KetDBF=F FulRan=T
         wScrn=  0.000000 ICntrl=     500 IOpCl=  0 I1Cent=           0 NGrid=           0
         NMat0=    1 NMatS0=      1 NMatT0=    0 NMatD0=    1 NMtDS0=    0 NMtDT0=    0
 Symmetry not used in FoFCou.
 FMM levels:  10  Number of levels for PrismC:   9
 Defaulting to unpruned grid for atomic number  78.
 Defaulting to unpruned grid for atomic number  78.
 Defaulting to unpruned grid for atomic number  78.
 Defaulting to unpruned grid for atomic number  78.
 Defaulting to unpruned grid for atomic number  78.
 Defaulting to unpruned grid for atomic number  78.
 Defaulting to unpruned grid for atomic number  78.
 Defaulting to unpruned grid for atomic number  78.
 Inv3:  Mode=1 IEnd=    73685808.
 Iteration    1 A*A^-1 deviation from unit magnitude is 1.02D-14 for   4469.
 Iteration    1 A*A^-1 deviation from orthogonality  is 1.09D-14 for   4841   4142.
 Iteration    1 A^-1*A deviation from unit magnitude is 9.55D-15 for   4673.
 Iteration    1 A^-1*A deviation from orthogonality  is 5.61D-09 for   3012   2998.
 Iteration    2 A*A^-1 deviation from unit magnitude is 9.77D-15 for     48.
 Iteration    2 A*A^-1 deviation from orthogonality  is 1.42D-14 for   2561   1062.
 Iteration    2 A^-1*A deviation from unit magnitude is 2.00D-15 for   4208.
 Iteration    2 A^-1*A deviation from orthogonality  is 9.99D-16 for   3771   1814.
 E= -33218.7261904367    
 DIIS: error= 2.75D-01 at cycle   1 NSaved=   1.
 NSaved= 1 IEnMin= 1 EnMin= -33218.7261904367     IErMin= 1 ErrMin= 2.75D-01
 ErrMax= 2.75D-01  0.00D+00 EMaxC= 1.00D-01 BMatC= 3.53D+02 BMatP= 3.53D+02
 IDIUse=3 WtCom= 0.00D+00 WtEn= 1.00D+00
 Coeff-Com:  0.100D+01
 Coeff-En:   0.100D+01
 Coeff:      0.100D+01
 Gap=     0.548 Goal=   None    Shift=    0.000
 GapD=    0.548 DampG=2.000 DampE=0.125 DampFc=0.2500 IDamp=-1.
 Damping current iteration by 2.50D-01
 RMSDP=6.12D-03 MaxDP=1.49D+00              OVMax= 6.83D-01

 Cycle   2  Pass 1  IDiag  1:
 RMSU=  1.52D-03    CP:  1.02D+00
 E= -33220.4507333669     Delta-E=       -1.724542930213 Rises=F Damp=T
 DIIS: error= 2.04D-01 at cycle   2 NSaved=   2.
 NSaved= 2 IEnMin= 2 EnMin= -33220.4507333669     IErMin= 2 ErrMin= 2.04D-01
 ErrMax= 2.04D-01  0.00D+00 EMaxC= 1.00D-01 BMatC= 1.71D+02 BMatP= 3.53D+02
 IDIUse=3 WtCom= 0.00D+00 WtEn= 1.00D+00
 Coeff-Com: -0.203D+01 0.303D+01
 Coeff-En:   0.000D+00 0.100D+01
 Coeff:      0.000D+00 0.100D+01
 Gap=     0.002 Goal=   None    Shift=    0.000
 RMSDP=1.55D-03 MaxDP=2.12D-01 DE=-1.72D+00 OVMax= 4.28D-01

 Cycle   3  Pass 1  IDiag  1:
 RMSU=  1.55D-03    CP:  1.02D+00  9.88D-01
 E= -33223.0511625605     Delta-E=       -2.600429193648 Rises=F Damp=F
 DIIS: error= 3.93D-02 at cycle   3 NSaved=   3.
 NSaved= 3 IEnMin= 3 EnMin= -33223.0511625605     IErMin= 3 ErrMin= 3.93D-02
 ErrMax= 3.93D-02  0.00D+00 EMaxC= 1.00D-01 BMatC= 9.55D+00 BMatP= 1.71D+02
 IDIUse=3 WtCom= 6.07D-01 WtEn= 3.93D-01
 Coeff-Com:  0.108D+01-0.135D+01 0.127D+01
 Coeff-En:   0.119D+00 0.000D+00 0.881D+00
 Coeff:      0.704D+00-0.819D+00 0.111D+01
 Gap=     0.121 Goal=   None    Shift=    0.000
 RMSDP=3.55D-03 MaxDP=7.16D-01 DE=-2.60D+00 OVMax= 6.23D-01

 Cycle   4  Pass 1  IDiag  1:
 RMSU=  2.86D-03    CP:  1.05D+00  1.88D+00 -3.48D-02
 E= -33219.4474025801     Delta-E=        3.603759980469 Rises=F Damp=F
 DIIS: error= 2.32D-02 at cycle   4 NSaved=   4.
 NSaved= 4 IEnMin= 3 EnMin= -33223.0511625605     IErMin= 4 ErrMin= 2.32D-02
 ErrMax= 2.32D-02  0.00D+00 EMaxC= 1.00D-01 BMatC= 4.48D+00 BMatP= 9.55D+00
 IDIUse=3 WtCom= 7.68D-01 WtEn= 2.32D-01
 EnCoef did     5 forward-backward iterations
 Coeff-Com:  0.687D+00-0.876D+00 0.786D+00 0.403D+00
 Coeff-En:   0.971D-01 0.000D+00 0.820D+00 0.831D-01
 Coeff:      0.551D+00-0.673D+00 0.794D+00 0.329D+00
 Gap=     0.158 Goal=   None    Shift=    0.000
 RMSDP=3.27D-03 MaxDP=8.52D-01 DE= 3.60D+00 OVMax= 4.19D-01

 Cycle   5  Pass 1  IDiag  1:
 RMSU=  5.91D-04    CP:  1.01D+00  7.07D-01  6.17D-01  1.38D-01
 E= -33223.9656019807     Delta-E=       -4.518199400627 Rises=F Damp=F
 DIIS: error= 6.67D-03 at cycle   5 NSaved=   5.
 NSaved= 5 IEnMin= 5 EnMin= -33223.9656019807     IErMin= 5 ErrMin= 6.67D-03
 ErrMax= 6.67D-03  0.00D+00 EMaxC= 1.00D-01 BMatC= 3.20D-01 BMatP= 4.48D+00
 IDIUse=3 WtCom= 9.33D-01 WtEn= 6.67D-02
 Coeff-Com: -0.934D-02 0.245D-01 0.161D+00 0.906D-01 0.733D+00
 Coeff-En:   0.000D+00 0.000D+00 0.590D-01 0.000D+00 0.941D+00
 Coeff:     -0.871D-02 0.229D-01 0.154D+00 0.845D-01 0.747D+00
 Gap=     0.114 Goal=   None    Shift=    0.000
 RMSDP=6.54D-04 MaxDP=8.74D-02 DE=-4.52D+00 OVMax= 1.16D-01

 Cycle   6  Pass 1  IDiag  1:
 RMSU=  4.54D-04    CP:  1.02D+00  7.46D-01  6.86D-01  1.31D-01  2.36D-01
 E= -33224.0110098228     Delta-E=       -0.045407842139 Rises=F Damp=F
 DIIS: error= 4.49D-03 at cycle   6 NSaved=   6.
 NSaved= 6 IEnMin= 6 EnMin= -33224.0110098228     IErMin= 6 ErrMin= 4.49D-03
 ErrMax= 4.49D-03  0.00D+00 EMaxC= 1.00D-01 BMatC= 1.26D-01 BMatP= 3.20D-01
 IDIUse=3 WtCom= 9.55D-01 WtEn= 4.49D-02
 Coeff-Com: -0.481D-01 0.668D-01 0.312D-01 0.346D-01 0.483D+00 0.432D+00
 Coeff-En:   0.000D+00 0.000D+00 0.000D+00 0.000D+00 0.426D+00 0.574D+00
 Coeff:     -0.459D-01 0.638D-01 0.298D-01 0.331D-01 0.481D+00 0.438D+00
 Gap=     0.096 Goal=   None    Shift=    0.000
 RMSDP=3.75D-04 MaxDP=5.91D-02 DE=-4.54D-02 OVMax= 8.22D-02

 Cycle   7  Pass 1  IDiag  1:
 RMSU=  1.52D-04    CP:  1.02D+00  7.69D-01  6.79D-01  1.46D-01  6.34D-01
                    CP:  4.65D-01
 E= -33224.1121398188     Delta-E=       -0.101129995965 Rises=F Damp=F
 DIIS: error= 9.98D-04 at cycle   7 NSaved=   7.
 NSaved= 7 IEnMin= 7 EnMin= -33224.1121398188     IErMin= 7 ErrMin= 9.98D-04
 ErrMax= 9.98D-04  0.00D+00 EMaxC= 1.00D-01 BMatC= 1.18D-02 BMatP= 1.26D-01
 IDIUse=3 WtCom= 9.90D-01 WtEn= 9.98D-03
 Coeff-Com: -0.554D-01 0.746D-01-0.844D-02 0.857D-02 0.252D+00 0.277D+00
 Coeff-Com:  0.452D+00
 Coeff-En:   0.000D+00 0.000D+00 0.000D+00 0.000D+00 0.000D+00 0.127D-01
 Coeff-En:   0.987D+00
 Coeff:     -0.548D-01 0.738D-01-0.836D-02 0.849D-02 0.250D+00 0.274D+00
 Coeff:      0.457D+00
 Gap=     0.094 Goal=   None    Shift=    0.000
 RMSDP=1.07D-04 MaxDP=1.49D-02 DE=-1.01D-01 OVMax= 2.46D-02

 Cycle   8  Pass 1  IDiag  1:
 RMSU=  6.03D-05    CP:  1.02D+00  7.69D-01  6.75D-01  1.49D-01  5.99D-01
                    CP:  5.44D-01  4.99D-01
 E= -33224.1197409958     Delta-E=       -0.007601176971 Rises=F Damp=F
 DIIS: error= 3.55D-04 at cycle   8 NSaved=   8.
 NSaved= 8 IEnMin= 8 EnMin= -33224.1197409958     IErMin= 8 ErrMin= 3.55D-04
 ErrMax= 3.55D-04  0.00D+00 EMaxC= 1.00D-01 BMatC= 1.13D-03 BMatP= 1.18D-02
 IDIUse=3 WtCom= 9.96D-01 WtEn= 3.55D-03
 Coeff-Com: -0.122D-01 0.162D-01-0.372D-02 0.525D-02 0.470D-01 0.643D-01
 Coeff-Com:  0.253D+00 0.631D+00
 Coeff-En:   0.000D+00 0.000D+00 0.000D+00 0.000D+00 0.000D+00 0.000D+00
 Coeff-En:   0.103D+00 0.897D+00
 Coeff:     -0.122D-01 0.162D-01-0.371D-02 0.523D-02 0.468D-01 0.640D-01
 Coeff:      0.252D+00 0.631D+00
 Gap=     0.095 Goal=   None    Shift=    0.000
 RMSDP=4.11D-05 MaxDP=8.47D-03 DE=-7.60D-03 OVMax= 7.57D-03

 Error on total polarization charges =  0.02716
 SCF Done:  E(RPBE-PBE) =  -33224.1197410     A.U. after    8 cycles
            NFock=  8  Conv=0.41D-04     -V/T= 2.0153
 KE= 3.272310613782D+04 PE=-1.027872919158D+05 EE= 2.475318342710D+04
 Leave Link  502 at Sat Sep  8 20:34:31 2018, MaxMem=  2013265920 cpu:     16104.7
 (Enter /scr/programs/g09/l801.exe)
 Range of M.O.s used for correlation:     1  1452
 NBasis=  1452 NAE=   230 NBE=   230 NFC=     0 NFV=     0
 NROrb=   1452 NOA=   230 NOB=   230 NVA=  1222 NVB=  1222

 **** Warning!!: The largest alpha MO coefficient is  0.44502093D+02


 **** Warning!!: The smallest alpha delta epsilon is  0.94701491D-01

 Leave Link  801 at Sat Sep  8 20:34:31 2018, MaxMem=  2013265920 cpu:         0.9
 (Enter /scr/programs/g09/l1002.exe)
 Minotr:  Closed shell wavefunction.
 NEqPCM:  Using equilibrium solvation (IEInf=0, Eps=   8.9300, EpsInf=   2.0283)
          Direct CPHF calculation.
          Differentiating once with respect to magnetic field using GIAOs.
          Electric field/nuclear overlap derivatives assumed to be zero.
          Requested convergence is 1.0D-08 RMS, and 1.0D-07 maximum.
          Secondary convergence is 1.0D-12 RMS, and 1.0D-12 maximum.
          NewPWx=T KeepS1=F KeepF1=F KeepIn=T MapXYZ=F SortEE=F KeepMc=T.
          MDV=    2013263896 using IRadAn=       2.
 Defaulting to unpruned grid for atomic number  78.
 Generate precomputed XC quadrature information.
          Solving linear equations simultaneously, MaxMat=      72.
 FoFJK:  IHMeth= 1 ICntrl=    6127 DoSepK=F KAlg= 0 I1Cent=   0 FoldK=F
 IRaf=         1 NMat=   1 IRICut=       1 DoRegI=T DoRafI=F ISym2E= 0.
 Defaulting to unpruned grid for atomic number  78.
 Defaulting to unpruned grid for atomic number  78.
 Defaulting to unpruned grid for atomic number  78.
 Defaulting to unpruned grid for atomic number  78.
 Defaulting to unpruned grid for atomic number  78.
 Defaulting to unpruned grid for atomic number  78.
 Defaulting to unpruned grid for atomic number  78.
 Defaulting to unpruned grid for atomic number  78.
          There are     3 degrees of freedom in the 1st order CPHF.  IDoFFX=0 NUNeed=     3.
      3 vectors produced by pass  0 Test12= 9.37D-12 3.33D-08 XBig12= 2.61D+02 1.69D+00.
 AX will form     3 AO Fock derivatives at one time.
 InvSVY:  IOpt=1 It=  1 EMax= 0.00D+00
 Solved reduced A of dimension     3 with     3 vectors.
 Calculating GIAO nuclear magnetic shielding tensors.
 SCF GIAO Magnetic shielding tensor (ppm):
      1  Pt   Isotropic =  3365.6862   Anisotropy =  1823.7932
   XX=  4278.9132   YX=  -578.5864   ZX=   336.8340
   XY=  -586.2798   YY=  3243.6485   ZY=  -128.3403
   XZ=   185.8076   YZ=  -109.2575   ZZ=  2574.4968
   Eigenvalues:  2533.4378  2982.0725  4581.5483
      2  Sn   Isotropic =  2124.9870   Anisotropy =   766.5029
   XX=  2145.6679   YX=   261.1932   ZX=    79.3118
   XY=   280.7183   YY=  2460.6630   ZY=    88.3303
   XZ=    90.5721   YZ=   113.2355   ZZ=  1768.6300
   Eigenvalues:  1747.0306  1991.9415  2635.9889
      3  Sn   Isotropic =  2117.6181   Anisotropy =   765.3051
   XX=  2185.9366   YX=   287.5487   ZX=   -31.7076
   XY=   290.3219   YY=  2401.6600   ZY=  -144.5406
   XZ=   -50.9842   YZ=  -159.0135   ZZ=  1765.2575
   Eigenvalues:  1729.2821  1995.7506  2627.8215
      4  Cl   Isotropic =   722.5170   Anisotropy =   323.0333
   XX=   853.4523   YX=   -63.9532   ZX=  -118.0339
   XY=   -26.4221   YY=   576.2293   ZY=   -24.8501
   XZ=  -140.9082   YZ=   -69.6656   ZZ=   737.8695
   Eigenvalues:   539.7101   689.9684   937.8726
      5  Cl   Isotropic =   739.7448   Anisotropy =   330.1121
   XX=   696.8953   YX=    33.3815   ZX=   109.5448
   XY=    43.9534   YY=   772.4067   ZY=   149.3425
   XZ=    92.6458   YZ=   173.5011   ZZ=   749.9323
   Eigenvalues:   575.3834   684.0314   959.8196
      6  Cl   Isotropic =   761.8002   Anisotropy =   269.7405
   XX=   633.0605   YX=   -80.9407   ZX=    23.4575
   XY=  -115.6426   YY=   841.7714   ZY=   -86.4179
   XZ=   -19.4089   YZ=  -101.8454   ZZ=   810.5688
   Eigenvalues:   588.5401   755.2333   941.6272
      7  Cl   Isotropic =   728.8877   Anisotropy =   292.9664
   XX=   672.7827   YX=  -121.0909   ZX=    -8.9428
   XY=  -151.2335   YY=   846.3374   ZY=    23.2941
   XZ=     9.1585   YZ=    41.8453   ZZ=   667.5430
   Eigenvalues:   594.5735   667.8909   924.1986
      8  Cl   Isotropic =   736.5280   Anisotropy =   332.2435
   XX=   715.7218   YX=   -20.9200   ZX=   143.5288
   XY=     3.9471   YY=   629.9478   ZY=    59.7683
   XZ=   142.1062   YZ=    64.3375   ZZ=   863.9143
   Eigenvalues:   586.6148   664.9455   958.0236
      9  Cl   Isotropic =   718.0727   Anisotropy =   348.4558
   XX=   763.1899   YX=    53.3631   ZX=  -146.2720
   XY=    72.1055   YY=   680.2059   ZY=  -122.0041
   XZ=  -139.7862   YZ=  -142.4320   ZZ=   710.8224
   Eigenvalues:   545.6916   658.1500   950.3766
     10  C    Isotropic =   138.2945   Anisotropy =    38.8303
   XX=   154.2659   YX=     8.8783   ZX=    19.8063
   XY=    -2.3155   YY=   143.0821   ZY=    -9.2596
   XZ=    23.2030   YZ=    -4.2600   ZZ=   117.5354
   Eigenvalues:   106.0952   144.6069   164.1813
     11  H    Isotropic =    28.0024   Anisotropy =     8.9070
   XX=    29.1695   YX=    -0.2507   ZX=     2.6465
   XY=     0.1780   YY=    27.4317   ZY=    -5.8093
   XZ=     2.8851   YZ=    -5.4786   ZZ=    27.4059
   Eigenvalues:    21.2807    28.7860    33.9403
     12  H    Isotropic =    28.6472   Anisotropy =     8.1690
   XX=    29.7698   YX=    -2.6879   ZX=     4.0697
   XY=    -2.8229   YY=    31.0754   ZY=     0.8581
   XZ=     4.6417   YZ=    -0.1287   ZZ=    25.0963
   Eigenvalues:    22.1379    29.7105    34.0932
     13  C    Isotropic =   140.4471   Anisotropy =    46.6050
   XX=   154.9512   YX=   -19.2423   ZX=   -14.3748
   XY=   -15.6586   YY=   130.7909   ZY=    16.1686
   XZ=    -5.1516   YZ=    15.1845   ZZ=   135.5992
   Eigenvalues:   115.6849   134.1394   171.5171
     14  H    Isotropic =    28.4408   Anisotropy =    10.1152
   XX=    33.9690   YX=     3.0015   ZX=    -2.6488
   XY=     2.4013   YY=    28.7215   ZY=     4.0678
   XZ=    -3.0438   YZ=     5.3035   ZZ=    22.6318
   Eigenvalues:    19.1158    31.0222    35.1842
     15  H    Isotropic =    28.9133   Anisotropy =     7.1945
   XX=    28.0489   YX=    -3.7282   ZX=    -3.2673
   XY=    -3.5671   YY=    30.3546   ZY=    -1.1241
   XZ=    -4.7448   YZ=    -0.8451   ZZ=    28.3365
   Eigenvalues:    22.6878    30.3425    33.7097
     16  C    Isotropic =   149.4174   Anisotropy =     9.7454
   XX=   139.2165   YX=    -4.1251   ZX=    -8.4136
   XY=    -3.0182   YY=   154.6381   ZY=    -0.6576
   XZ=     1.9023   YZ=    -2.0796   ZZ=   154.3977
   Eigenvalues:   137.7056   154.6323   155.9144
     17  H    Isotropic =    28.3247   Anisotropy =    10.0310
   XX=    25.4760   YX=     1.4301   ZX=     3.0774
   XY=     2.1780   YY=    32.0146   ZY=     3.4141
   XZ=     3.6731   YZ=     3.5121   ZZ=    27.4834
   Eigenvalues:    22.9027    27.0592    35.0120
     18  H    Isotropic =    28.6225   Anisotropy =     9.0550
   XX=    31.6905   YX=    -2.2138   ZX=     2.3553
   XY=    -2.7993   YY=    27.2155   ZY=    -3.2803
   XZ=     2.6584   YZ=    -3.3916   ZZ=    26.9615
   Eigenvalues:    23.7494    27.4589    34.6592
     19  C    Isotropic =   137.7735   Anisotropy =    40.9365
   XX=   164.5713   YX=     7.6866   ZX=     1.8497
   XY=   -11.6101   YY=   144.5328   ZY=     3.8178
   XZ=     7.1266   YZ=    -0.0398   ZZ=   104.2165
   Eigenvalues:   103.7834   144.4726   165.0646
     20  H    Isotropic =    28.2401   Anisotropy =    11.9538
   XX=    31.8415   YX=    -4.2078   ZX=    -0.1881
   XY=    -3.4347   YY=    29.9469   ZY=     6.3879
   XZ=     0.0712   YZ=     5.9611   ZZ=    22.9319
   Eigenvalues:    19.0470    29.4641    36.2093
     21  H    Isotropic =    28.1478   Anisotropy =     9.2151
   XX=    30.3897   YX=    -2.8182   ZX=    -0.5062
   XY=    -2.5022   YY=    31.9805   ZY=    -3.1307
   XZ=    -0.3434   YZ=    -2.3669   ZZ=    22.0733
   Eigenvalues:    21.2271    28.9252    34.2912
     22  C    Isotropic =   146.8745   Anisotropy =    28.0560
   XX=   139.5771   YX=   -13.1400   ZX=     7.3415
   XY=   -15.9151   YY=   156.4767   ZY=    -5.2531
   XZ=    -3.1849   YZ=    -1.4865   ZZ=   144.5698
   Eigenvalues:   131.2196   143.8255   165.5786
     23  H    Isotropic =    29.5998   Anisotropy =     6.5075
   XX=    29.6136   YX=     0.7227   ZX=     2.9973
   XY=     0.3573   YY=    29.2380   ZY=    -1.5643
   XZ=     5.0374   YZ=    -1.6270   ZZ=    29.9477
   Eigenvalues:    25.1974    29.6638    33.9381
     24  H    Isotropic =    28.0091   Anisotropy =     8.3219
   XX=    32.8569   YX=    -0.6686   ZX=    -1.5010
   XY=    -0.3992   YY=    26.5265   ZY=    -3.3489
   XZ=    -3.2515   YZ=    -5.0162   ZZ=    24.6440
   Eigenvalues:    20.8932    29.5771    33.5571
     25  C    Isotropic =   150.6127   Anisotropy =    49.2923
   XX=   161.2582   YX=     0.2604   ZX=   -25.1151
   XY=     4.7389   YY=   129.4687   ZY=    10.5134
   XZ=   -16.5213   YZ=    18.9401   ZZ=   161.1112
   Eigenvalues:   120.6943   147.6695   183.4742
     26  H    Isotropic =    29.3306   Anisotropy =     3.5241
   XX=    27.1673   YX=     0.3708   ZX=    -1.4366
   XY=    -0.0483   YY=    31.4585   ZY=     0.1522
   XZ=    -2.4578   YZ=     1.1149   ZZ=    29.3661
   Eigenvalues:    25.9918    30.3201    31.6800
     27  H    Isotropic =    29.3637   Anisotropy =    12.4711
   XX=    32.7684   YX=    -4.7889   ZX=    -2.1856
   XY=    -3.5359   YY=    23.6094   ZY=     4.2827
   XZ=    -3.8594   YZ=     3.7450   ZZ=    31.7132
   Eigenvalues:    21.2265    29.1867    37.6778
     28  C    Isotropic =   156.3362   Anisotropy =    21.9436
   XX=   165.2687   YX=     1.2391   ZX=     9.9596
   XY=     3.7435   YY=   155.2809   ZY=     2.8371
   XZ=     9.8812   YZ=     5.9596   ZZ=   148.4591
   Eigenvalues:   143.1110   154.9323   170.9653
     29  H    Isotropic =    29.7364   Anisotropy =     5.7689
   XX=    31.4704   YX=    -2.1227   ZX=     2.1699
   XY=    -2.2807   YY=    30.6087   ZY=     4.3402
   XZ=     3.0316   YZ=     4.0519   ZZ=    27.1302
   Eigenvalues:    22.9757    32.6513    33.5824
     30  H    Isotropic =    29.5001   Anisotropy =     5.1719
   XX=    31.7102   YX=     2.3376   ZX=     1.5272
   XY=     3.2070   YY=    25.9673   ZY=    -3.6560
   XZ=     0.9324   YZ=    -3.5225   ZZ=    30.8228
   Eigenvalues:    23.0093    32.5429    32.9480
     31  C    Isotropic =   154.1537   Anisotropy =    13.4047
   XX=   154.4362   YX=     2.9095   ZX=    -0.4006
   XY=     2.2899   YY=   145.4990   ZY=     3.5976
   XZ=    -3.9992   YZ=    -2.8619   ZZ=   162.5259
   Eigenvalues:   144.7483   154.6226   163.0902
     32  H    Isotropic =    28.9788   Anisotropy =    11.0690
   XX=    24.1111   YX=     2.6887   ZX=    -1.1890
   XY=     2.0603   YY=    31.2555   ZY=    -4.4955
   XZ=    -0.6811   YZ=    -4.5008   ZZ=    31.5698
   Eigenvalues:    23.3654    27.2129    36.3581
     33  H    Isotropic =    29.7996   Anisotropy =     9.0495
   XX=    31.7637   YX=     1.0683   ZX=     3.6832
   XY=     1.3170   YY=    24.9283   ZY=    -0.9451
   XZ=     3.4485   YZ=    -1.3402   ZZ=    32.7067
   Eigenvalues:    24.3002    29.2659    35.8326
     34  C    Isotropic =   156.8822   Anisotropy =    19.1732
   XX=   160.4381   YX=    -6.7416   ZX=    -0.5267
   XY=    -7.3592   YY=   150.3691   ZY=    10.4806
   XZ=    -1.8209   YZ=    10.9258   ZZ=   159.8393
   Eigenvalues:   141.8301   159.1520   169.6643
     35  H    Isotropic =    29.8736   Anisotropy =     5.9478
   XX=    29.3565   YX=    -4.7557   ZX=    -0.2807
   XY=    -4.3495   YY=    29.1949   ZY=    -0.7820
   XZ=    -1.0439   YZ=    -1.0271   ZZ=    31.0696
   Eigenvalues:    24.5340    31.2481    33.8389
     36  H    Isotropic =    29.7841   Anisotropy =     5.6864
   XX=    33.3784   YX=     0.9913   ZX=    -0.6850
   XY=     0.8579   YY=    28.9059   ZY=     4.5340
   XZ=    -0.8591   YZ=     4.8422   ZZ=    27.0680
   Eigenvalues:    23.0736    32.7036    33.5750
     37  C    Isotropic =   155.5031   Anisotropy =    20.4863
   XX=   168.2874   YX=     2.0838   ZX=     1.7138
   XY=     1.1338   YY=   160.2701   ZY=     8.2704
   XZ=     2.3141   YZ=     9.4041   ZZ=   137.9518
   Eigenvalues:   134.8197   162.5289   169.1607
     38  H    Isotropic =    29.6222   Anisotropy =     5.5522
   XX=    32.2660   YX=     0.2342   ZX=    -0.8540
   XY=    -0.0155   YY=    27.6445   ZY=     5.3320
   XZ=     0.0523   YZ=     4.5272   ZZ=    28.9561
   Eigenvalues:    23.3138    32.2290    33.3237
     39  H    Isotropic =    29.4740   Anisotropy =     6.3295
   XX=    31.5693   YX=     0.8106   ZX=     2.6168
   XY=     1.4811   YY=    32.4413   ZY=    -3.5189
   XZ=     2.1229   YZ=    -3.1416   ZZ=    24.4114
   Eigenvalues:    22.4572    32.2712    33.6937
     40  C    Isotropic =   163.0017   Anisotropy =    20.4564
   XX=   171.3473   YX=    -7.2577   ZX=   -11.5397
   XY=    -0.2890   YY=   162.2118   ZY=    -5.7380
   XZ=    -8.9209   YZ=    -0.6962   ZZ=   155.4460
   Eigenvalues:   148.8727   163.4931   176.6393
     41  H    Isotropic =    29.9220   Anisotropy =     8.3608
   XX=    30.3068   YX=    -1.0801   ZX=    -2.8244
   XY=    -1.1683   YY=    31.8601   ZY=    -5.4261
   XZ=    -3.1763   YZ=    -5.0178   ZZ=    27.5991
   Eigenvalues:    22.7895    31.4807    35.4958
     42  H    Isotropic =    29.1309   Anisotropy =     5.6591
   XX=    32.5245   YX=    -0.5547   ZX=     1.7978
   XY=    -0.4813   YY=    30.0196   ZY=     2.0285
   XZ=     1.5800   YZ=     0.4316   ZZ=    24.8487
   Eigenvalues:    24.1982    30.2909    32.9036
     43  C    Isotropic =   156.5183   Anisotropy =    17.4103
   XX=   158.5654   YX=     3.0448   ZX=    -5.2737
   XY=     3.0658   YY=   145.8679   ZY=     3.6354
   XZ=    -3.9037   YZ=     7.5545   ZZ=   165.1217
   Eigenvalues:   143.1999   158.2299   168.1252
     44  H    Isotropic =    29.5151   Anisotropy =     6.3332
   XX=    32.9505   YX=    -2.8498   ZX=     0.8570
   XY=    -2.6000   YY=    24.2710   ZY=     1.4723
   XZ=     0.0719   YZ=     1.2543   ZZ=    31.3237
   Eigenvalues:    23.2307    31.5773    33.7372
     45  H    Isotropic =    29.5310   Anisotropy =     5.3306
   XX=    26.4201   YX=     2.4106   ZX=    -3.1092
   XY=     2.0361   YY=    31.4463   ZY=     1.8987
   XZ=    -3.6545   YZ=     1.8753   ZZ=    30.7266
   Eigenvalues:    23.5284    31.9799    33.0847
     46  P    Isotropic =   261.3637   Anisotropy =    88.1048
   XX=   285.3344   YX=   -49.3143   ZX=   -19.3174
   XY=   -35.9805   YY=   267.4587   ZY=   -17.1884
   XZ=     2.8698   YZ=   -13.6257   ZZ=   231.2978
   Eigenvalues:   214.8440   249.1468   320.1002
     47  P    Isotropic =   277.2886   Anisotropy =    58.5202
   XX=   259.8813   YX=   -25.8332   ZX=   -25.1734
   XY=   -11.9803   YY=   297.6330   ZY=    14.7800
   XZ=    -2.4965   YZ=    19.5620   ZZ=   274.3514
   Eigenvalues:   249.7231   265.8406   316.3021
     48  C    Isotropic =   165.5409   Anisotropy =    31.7331
   XX=   177.1097   YX=     9.6455   ZX=     4.0574
   XY=    15.8737   YY=   165.4481   ZY=     6.2241
   XZ=     3.7282   YZ=     6.4306   ZZ=   154.0650
   Eigenvalues:   151.0768   158.8496   186.6963
     49  H    Isotropic =    30.0759   Anisotropy =    13.1433
   XX=    38.7175   YX=    -0.6770   ZX=     1.1948
   XY=     0.8335   YY=    26.7430   ZY=     0.4716
   XZ=     1.3985   YZ=     0.4496   ZZ=    24.7674
   Eigenvalues:    24.5547    26.8350    38.8382
     50  H    Isotropic =    30.4351   Anisotropy =     7.3111
   XX=    31.4089   YX=     1.5214   ZX=     2.1656
   XY=     0.6916   YY=    28.6605   ZY=     4.1772
   XZ=     1.5233   YZ=     3.7824   ZZ=    31.2360
   Eigenvalues:    25.7582    30.2380    35.3092
     51  H    Isotropic =    30.2847   Anisotropy =     7.1007
   XX=    31.9942   YX=     2.9264   ZX=    -0.5362
   XY=     1.8590   YY=    31.6128   ZY=    -3.6338
   XZ=    -0.0914   YZ=    -2.7129   ZZ=    27.2472
   Eigenvalues:    25.4595    30.3761    35.0186
     52  C    Isotropic =   165.1269   Anisotropy =    34.9387
   XX=   156.6378   YX=     0.5080   ZX=     1.6407
   XY=    -0.6856   YY=   153.5949   ZY=    11.9695
   XZ=    -5.0116   YZ=     9.0742   ZZ=   185.1481
   Eigenvalues:   150.3818   156.5796   188.4194
     53  H    Isotropic =    30.5080   Anisotropy =     9.4248
   XX=    26.4494   YX=    -0.2655   ZX=    -1.4950
   XY=    -0.4632   YY=    34.0058   ZY=     3.2582
   XZ=    -0.9163   YZ=     4.5249   ZZ=    31.0688
   Eigenvalues:    26.0890    28.6437    36.7912
     54  H    Isotropic =    30.0265   Anisotropy =    12.9548
   XX=    29.9853   YX=     0.4655   ZX=    -5.0684
   XY=    -0.0431   YY=    25.3399   ZY=     1.3460
   XZ=    -6.5003   YZ=     0.6157   ZZ=    34.7544
   Eigenvalues:    24.8821    26.5344    38.6631
     55  H    Isotropic =    30.6565   Anisotropy =     6.8984
   XX=    30.5125   YX=    -2.8934   ZX=     1.5173
   XY=    -2.3328   YY=    27.1269   ZY=     0.1994
   XZ=     2.3278   YZ=    -0.0580   ZZ=    34.3299
   Eigenvalues:    25.5905    31.1235    35.2554
     56  C    Isotropic =   168.0010   Anisotropy =    22.5828
   XX=   178.9949   YX=    -7.1213   ZX=    -5.2545
   XY=    -3.7112   YY=   164.7697   ZY=     1.7981
   XZ=    -6.4740   YZ=     7.7600   ZZ=   160.2383
   Eigenvalues:   156.9586   163.9882   183.0562
     57  H    Isotropic =    30.1912   Anisotropy =     4.8779
   XX=    30.5285   YX=    -1.9501   ZX=    -3.0898
   XY=    -2.6877   YY=    30.9516   ZY=    -3.1711
   XZ=    -3.0775   YZ=    -3.4124   ZZ=    29.0936
   Eigenvalues:    24.2364    32.8941    33.4432
     58  H    Isotropic =    30.3566   Anisotropy =    12.0475
   XX=    29.7442   YX=    -5.3210   ZX=    -1.6332
   XY=    -3.7619   YY=    34.7376   ZY=     2.8302
   XZ=    -1.2837   YZ=     3.2822   ZZ=    26.5879
   Eigenvalues:    25.5677    27.1138    38.3882
     59  H    Isotropic =    30.6390   Anisotropy =     9.8633
   XX=    35.0170   YX=    -1.0997   ZX=     4.5740
   XY=    -2.2326   YY=    29.2283   ZY=    -0.7837
   XZ=     3.5339   YZ=    -0.5202   ZZ=    27.6718
   Eigenvalues:    25.8722    28.8303    37.2146
     60  C    Isotropic =   165.9245   Anisotropy =    33.7759
   XX=   161.8272   YX=    -5.9545   ZX=    -6.8496
   XY=    -7.9350   YY=   162.2856   ZY=    12.4733
   XZ=   -12.7095   YZ=    15.4289   ZZ=   173.6609
   Eigenvalues:   152.8846   156.4472   188.4418
     61  H    Isotropic =    30.1771   Anisotropy =    13.0630
   XX=    34.5664   YX=    -4.7806   ZX=    -2.3944
   XY=    -5.2901   YY=    28.2292   ZY=     2.5178
   XZ=    -3.9747   YZ=     3.0390   ZZ=    27.7356
   Eigenvalues:    24.9031    26.7424    38.8858
     62  H    Isotropic =    30.6085   Anisotropy =     7.8971
   XX=    29.9650   YX=     0.9939   ZX=    -1.9244
   XY=     1.5846   YY=    33.1888   ZY=     4.0000
   XZ=    -0.9016   YZ=     4.7391   ZZ=    28.6715
   Eigenvalues:    25.2602    30.6920    35.8732
     63  H    Isotropic =    30.6616   Anisotropy =     7.9563
   XX=    28.2020   YX=    -1.3764   ZX=    -3.2447
   XY=    -1.1670   YY=    29.0435   ZY=    -0.1969
   XZ=    -2.8801   YZ=    -1.5135   ZZ=    34.7392
   Eigenvalues:    26.2003    29.8187    35.9658
     64  C    Isotropic =   166.8446   Anisotropy =    27.8407
   XX=   159.3240   YX=     6.7316   ZX=     5.3595
   XY=     1.5013   YY=   167.2958   ZY=    15.7423
   XZ=     3.7959   YZ=    10.1332   ZZ=   173.9138
   Eigenvalues:   157.0300   158.0987   185.4050
     65  H    Isotropic =    30.7437   Anisotropy =     4.3419
   XX=    27.0004   YX=     0.4224   ZX=     0.5354
   XY=     0.4181   YY=    32.2635   ZY=    -1.4535
   XZ=     0.8589   YZ=    -0.4303   ZZ=    32.9672
   Eigenvalues:    26.8676    31.7252    33.6383
     66  H    Isotropic =    30.1341   Anisotropy =    11.8530
   XX=    27.4673   YX=     0.0093   ZX=    -2.7363
   XY=    -1.0940   YY=    26.1104   ZY=     2.4862
   XZ=    -3.2497   YZ=     1.3688   ZZ=    36.8245
   Eigenvalues:    25.7737    26.5924    38.0361
     67  H    Isotropic =    30.2989   Anisotropy =    10.2297
   XX=    32.3036   YX=    -0.7445   ZX=     4.1532
   XY=     0.7005   YY=    25.5503   ZY=    -0.1464
   XZ=     4.6900   YZ=    -0.6615   ZZ=    33.0429
   Eigenvalues:    25.5175    28.2605    37.1187
     68  C    Isotropic =   166.9171   Anisotropy =    31.5470
   XX=   176.3271   YX=    10.6042   ZX=     8.8757
   XY=    15.7859   YY=   164.0169   ZY=     5.8828
   XZ=     9.7822   YZ=    -0.2744   ZZ=   160.4073
   Eigenvalues:   153.7686   159.0343   187.9484
     69  H    Isotropic =    30.4389   Anisotropy =     7.4209
   XX=    30.3995   YX=     1.0822   ZX=     2.3347
   XY=    -0.0728   YY=    31.7264   ZY=     3.9495
   XZ=     2.1654   YZ=     4.2423   ZZ=    29.1907
   Eigenvalues:    25.6532    30.2773    35.3861
     70  H    Isotropic =    30.1854   Anisotropy =    13.1636
   XX=    35.6115   YX=    -0.8600   ZX=     6.1141
   XY=     0.5958   YY=    26.5825   ZY=    -0.1991
   XZ=     5.7716   YZ=    -0.9878   ZZ=    28.3622
   Eigenvalues:    24.9029    26.6921    38.9612
     71  H    Isotropic =    30.4155   Anisotropy =     7.6706
   XX=    33.4664   YX=     3.5513   ZX=    -1.4078
   XY=     2.9500   YY=    28.1567   ZY=    -2.5017
   XZ=    -0.4688   YZ=    -1.5632   ZZ=    29.6235
   Eigenvalues:    25.9920    29.7253    35.5293
 End of Minotr F.D. properties file   721 does not exist.
 End of Minotr F.D. properties file   722 does not exist.
 End of Minotr F.D. properties file   788 does not exist.
 Leave Link 1002 at Sat Sep  8 22:35:25 2018, MaxMem=  2013265920 cpu:     57820.5
 (Enter /scr/programs/g09/l601.exe)
 Copying SCF densities to generalized density rwf, IOpCl= 0 IROHF=0.

 **********************************************************************

            Population analysis using the SCF density.

 **********************************************************************

 Orbital symmetries:
       Occupied  (A) (A) (A) (A) (A) (A) (A) (A) (A) (A) (A) (A)
                 (A) (A) (A) (A) (A) (A) (A) (A) (A) (A) (A) (A)
                 (A) (A) (A) (A) (A) (A) (A) (A) (A) (A) (A) (A)
                 (A) (A) (A) (A) (A) (A) (A) (A) (A) (A) (A) (A)
                 (A) (A) (A) (A) (A) (A) (A) (A) (A) (A) (A) (A)
                 (A) (A) (A) (A) (A) (A) (A) (A) (A) (A) (A) (A)
                 (A) (A) (A) (A) (A) (A) (A) (A) (A) (A) (A) (A)
                 (A) (A) (A) (A) (A) (A) (A) (A) (A) (A) (A) (A)
                 (A) (A) (A) (A) (A) (A) (A) (A) (A) (A) (A) (A)
                 (A) (A) (A) (A) (A) (A) (A) (A) (A) (A) (A) (A)
                 (A) (A) (A) (A) (A) (A) (A) (A) (A) (A) (A) (A)
                 (A) (A) (A) (A) (A) (A) (A) (A) (A) (A) (A) (A)
                 (A) (A) (A) (A) (A) (A) (A) (A) (A) (A) (A) (A)
                 (A) (A) (A) (A) (A) (A) (A) (A) (A) (A) (A) (A)
                 (A) (A) (A) (A) (A) (A) (A) (A) (A) (A) (A) (A)
                 (A) (A) (A) (A) (A) (A) (A) (A) (A) (A) (A) (A)
                 (A) (A) (A) (A) (A) (A) (A) (A) (A) (A) (A) (A)
                 (A) (A) (A) (A) (A) (A) (A) (A) (A) (A) (A) (A)
                 (A) (A) (A) (A) (A) (A) (A) (A) (A) (A) (A) (A)
                 (A) (A)
       Virtual   (A) (A) (A) (A) (A) (A) (A) (A) (A) (A) (A) (A)
                 (A) (A) (A) (A) (A) (A) (A) (A) (A) (A) (A) (A)
                 (A) (A) (A) (A) (A) (A) (A) (A) (A) (A) (A) (A)
                 (A) (A) (A) (A) (A) (A) (A) (A) (A) (A) (A) (A)
                 (A) (A) (A) (A) (A) (A) (A) (A) (A) (A) (A) (A)
                 (A) (A) (A) (A) (A) (A) (A) (A) (A) (A) (A) (A)
                 (A) (A) (A) (A) (A) (A) (A) (A) (A) (A) (A) (A)
                 (A) (A) (A) (A) (A) (A) (A) (A) (A) (A) (A) (A)
                 (A) (A) (A) (A) (A) (A) (A) (A) (A) (A) (A) (A)
                 (A) (A) (A) (A) (A) (A) (A) (A) (A) (A) (A) (A)
                 (A) (A) (A) (A) (A) (A) (A) (A) (A) (A) (A) (A)
                 (A) (A) (A) (A) (A) (A) (A) (A) (A) (A) (A) (A)
                 (A) (A) (A) (A) (A) (A) (A) (A) (A) (A) (A) (A)
                 (A) (A) (A) (A) (A) (A) (A) (A) (A) (A) (A) (A)
                 (A) (A) (A) (A) (A) (A) (A) (A) (A) (A) (A) (A)
                 (A) (A) (A) (A) (A) (A) (A) (A) (A) (A) (A) (A)
                 (A) (A) (A) (A) (A) (A) (A) (A) (A) (A) (A) (A)
                 (A) (A) (A) (A) (A) (A) (A) (A) (A) (A) (A) (A)
                 (A) (A) (A) (A) (A) (A) (A) (A) (A) (A) (A) (A)
                 (A) (A) (A) (A) (A) (A) (A) (A) (A) (A) (A) (A)
                 (A) (A) (A) (A) (A) (A) (A) (A) (A) (A) (A) (A)
                 (A) (A) (A) (A) (A) (A) (A) (A) (A) (A) (A) (A)
                 (A) (A) (A) (A) (A) (A) (A) (A) (A) (A) (A) (A)
                 (A) (A) (A) (A) (A) (A) (A) (A) (A) (A) (A) (A)
                 (A) (A) (A) (A) (A) (A) (A) (A) (A) (A) (A) (A)
                 (A) (A) (A) (A) (A) (A) (A) (A) (A) (A) (A) (A)
                 (A) (A) (A) (A) (A) (A) (A) (A) (A) (A) (A) (A)
                 (A) (A) (A) (A) (A) (A) (A) (A) (A) (A) (A) (A)
                 (A) (A) (A) (A) (A) (A) (A) (A) (A) (A) (A) (A)
                 (A) (A) (A) (A) (A) (A) (A) (A) (A) (A) (A) (A)
                 (A) (A) (A) (A) (A) (A) (A) (A) (A) (A) (A) (A)
                 (A) (A) (A) (A) (A) (A) (A) (A) (A) (A) (A) (A)
                 (A) (A) (A) (A) (A) (A) (A) (A) (A) (A) (A) (A)
                 (A) (A) (A) (A) (A) (A) (A) (A) (A) (A) (A) (A)
                 (A) (A) (A) (A) (A) (A) (A) (A) (A) (A) (A) (A)
                 (A) (A) (A) (A) (A) (A) (A) (A) (A) (A) (A) (A)
                 (A) (A) (A) (A) (A) (A) (A) (A) (A) (A) (A) (A)
                 (A) (A) (A) (A) (A) (A) (A) (A) (A) (A) (A) (A)
                 (A) (A) (A) (A) (A) (A) (A) (A) (A) (A) (A) (A)
                 (A) (A) (A) (A) (A) (A) (A) (A) (A) (A) (A) (A)
                 (A) (A) (A) (A) (A) (A) (A) (A) (A) (A) (A) (A)
                 (A) (A) (A) (A) (A) (A) (A) (A) (A) (A) (A) (A)
                 (A) (A) (A) (A) (A) (A) (A) (A) (A) (A) (A) (A)
                 (A) (A) (A) (A) (A) (A) (A) (A) (A) (A) (A) (A)
                 (A) (A) (A) (A) (A) (A) (A) (A) (A) (A) (A) (A)
                 (A) (A) (A) (A) (A) (A) (A) (A) (A) (A) (A) (A)
                 (A) (A) (A) (A) (A) (A) (A) (A) (A) (A) (A) (A)
                 (A) (A) (A) (A) (A) (A) (A) (A) (A) (A) (A) (A)
                 (A) (A) (A) (A) (A) (A) (A) (A) (A) (A) (A) (A)
                 (A) (A) (A) (A) (A) (A) (A) (A) (A) (A) (A) (A)
                 (A) (A) (A) (A) (A) (A) (A) (A) (A) (A) (A) (A)
                 (A) (A) (A) (A) (A) (A) (A) (A) (A) (A) (A) (A)
                 (A) (A) (A) (A) (A) (A) (A) (A) (A) (A) (A) (A)
                 (A) (A) (A) (A) (A) (A) (A) (A) (A) (A) (A) (A)
                 (A) (A) (A) (A) (A) (A) (A) (A) (A) (A) (A) (A)
                 (A) (A) (A) (A) (A) (A) (A) (A) (A) (A) (A) (A)
                 (A) (A) (A) (A) (A) (A) (A) (A) (A) (A) (A) (A)
                 (A) (A) (A) (A) (A) (A) (A) (A) (A) (A) (A) (A)
                 (A) (A) (A) (A) (A) (A) (A) (A) (A) (A) (A) (A)
                 (A) (A) (A) (A) (A) (A) (A) (A) (A) (A) (A) (A)
                 (A) (A) (A) (A) (A) (A) (A) (A) (A) (A) (A) (A)
                 (A) (A) (A) (A) (A) (A) (A) (A) (A) (A) (A) (A)
                 (A) (A) (A) (A) (A) (A) (A) (A) (A) (A) (A) (A)
                 (A) (A) (A) (A) (A) (A) (A) (A) (A) (A) (A) (A)
                 (A) (A) (A) (A) (A) (A) (A) (A) (A) (A) (A) (A)
                 (A) (A) (A) (A) (A) (A) (A) (A) (A) (A) (A) (A)
                 (A) (A) (A) (A) (A) (A) (A) (A) (A) (A) (A) (A)
                 (A) (A) (A) (A) (A) (A) (A) (A) (A) (A) (A) (A)
                 (A) (A) (A) (A) (A) (A) (A) (A) (A) (A) (A) (A)
                 (A) (A) (A) (A) (A) (A) (A) (A) (A) (A) (A) (A)
                 (A) (A) (A) (A) (A) (A) (A) (A) (A) (A) (A) (A)
                 (A) (A) (A) (A) (A) (A) (A) (A) (A) (A) (A) (A)
                 (A) (A) (A) (A) (A) (A) (A) (A) (A) (A) (A) (A)
                 (A) (A) (A) (A) (A) (A) (A) (A) (A) (A) (A) (A)
                 (A) (A) (A) (A) (A) (A) (A) (A) (A) (A) (A) (A)
                 (A) (A) (A) (A) (A) (A) (A) (A) (A) (A) (A) (A)
                 (A) (A) (A) (A) (A) (A) (A) (A) (A) (A) (A) (A)
                 (A) (A) (A) (A) (A) (A) (A) (A) (A) (A) (A) (A)
                 (A) (A) (A) (A) (A) (A) (A) (A) (A) (A) (A) (A)
                 (A) (A) (A) (A) (A) (A) (A) (A) (A) (A) (A) (A)
                 (A) (A) (A) (A) (A) (A) (A) (A) (A) (A) (A) (A)
                 (A) (A) (A) (A) (A) (A) (A) (A) (A) (A) (A) (A)
                 (A) (A) (A) (A) (A) (A) (A) (A) (A) (A) (A) (A)
                 (A) (A) (A) (A) (A) (A) (A) (A) (A) (A) (A) (A)
                 (A) (A) (A) (A) (A) (A) (A) (A) (A) (A) (A) (A)
                 (A) (A) (A) (A) (A) (A) (A) (A) (A) (A) (A) (A)
                 (A) (A) (A) (A) (A) (A) (A) (A) (A) (A) (A) (A)
                 (A) (A) (A) (A) (A) (A) (A) (A) (A) (A) (A) (A)
                 (A) (A) (A) (A) (A) (A) (A) (A) (A) (A) (A) (A)
                 (A) (A) (A) (A) (A) (A) (A) (A) (A) (A) (A) (A)
                 (A) (A) (A) (A) (A) (A) (A) (A) (A) (A) (A) (A)
                 (A) (A) (A) (A) (A) (A) (A) (A) (A) (A) (A) (A)
                 (A) (A) (A) (A) (A) (A) (A) (A) (A) (A) (A) (A)
                 (A) (A) (A) (A) (A) (A) (A) (A) (A) (A) (A) (A)
                 (A) (A) (A) (A) (A) (A) (A) (A) (A) (A) (A) (A)
                 (A) (A) (A) (A) (A) (A) (A) (A) (A) (A) (A) (A)
                 (A) (A) (A) (A) (A) (A) (A) (A) (A) (A) (A) (A)
                 (A) (A) (A) (A) (A) (A) (A) (A) (A) (A) (A) (A)
                 (A) (A) (A) (A) (A) (A) (A) (A) (A) (A) (A) (A)
                 (A) (A) (A) (A) (A) (A) (A) (A) (A) (A) (A) (A)
                 (A) (A) (A) (A) (A) (A) (A) (A) (A) (A) (A) (A)
                 (A) (A) (A) (A) (A) (A) (A) (A) (A) (A)
 The electronic state is 1-A.
 Alpha  occ. eigenvalues -- ******************************-427.55470-414.88528
 Alpha  occ. eigenvalues -- -414.88450-414.88213-149.66786-149.66664-141.94596
 Alpha  occ. eigenvalues -- -141.94585-141.94523-141.94474-141.94464-141.94400
 Alpha  occ. eigenvalues -- -100.56741-100.56655-100.56620-100.56597-100.56515
 Alpha  occ. eigenvalues -- -100.56503 -99.93500 -92.09371 -92.09234 -92.08877
 Alpha  occ. eigenvalues --  -79.05235 -79.05133 -79.04928 -79.04860 -79.04806
 Alpha  occ. eigenvalues --  -76.31747 -76.31602 -28.83205 -28.83091 -25.17843
 Alpha  occ. eigenvalues --  -25.17815 -25.17727 -25.17704 -25.17615 -25.17497
 Alpha  occ. eigenvalues --  -20.84917 -17.72720 -17.72719 -17.72606 -17.72605
 Alpha  occ. eigenvalues --  -17.72583 -17.72567 -17.72530 -17.72465 -17.72453
 Alpha  occ. eigenvalues --  -17.72413 -17.41777 -17.41518 -17.40770 -11.60105
[...]
 Alpha virt. eigenvalues --    0.83232   0.83574   0.83906   0.83963   0.84084
 Alpha virt. eigenvalues --    0.84532   0.84763   0.85005   0.85414   0.85626
 Alpha virt. eigenvalues --    0.85885   0.85986   0.86164   0.86218   0.86381
 Alpha virt. eigenvalues --    0.86799   0.87382   0.87528   0.87538   0.87948
 Alpha virt. eigenvalues --    0.88340   0.88405   0.88922   0.89193   0.89700
 Alpha virt. eigenvalues --    0.89899   0.90083   0.90180   0.90474   0.90835
 Alpha virt. eigenvalues --    0.90878   0.91055   0.91526   0.91669   0.91946
 Alpha virt. eigenvalues --    0.92052   0.92606   0.92909   0.93166   0.93245
 Alpha virt. eigenvalues --    0.93572   0.93724   0.94019   0.94194   0.94694
 Alpha virt. eigenvalues --    0.94887   0.95496   0.95598   0.95993   0.96361
 Alpha virt. eigenvalues --    0.96584   0.96783   0.97337   0.97420   0.97594
 Alpha virt. eigenvalues --    0.97924   0.98118   0.98410   0.98768   0.99097
 Alpha virt. eigenvalues --    0.99200   0.99586   0.99963   1.00504   1.00779
 Alpha virt. eigenvalues --    1.01059   1.01280   1.01407   1.01528   1.01943
 Alpha virt. eigenvalues --    1.02260   1.02481   1.02855   1.03164   1.03491
 Alpha virt. eigenvalues --    1.03819   1.03946   1.04513   1.04700   1.05133
 Alpha virt. eigenvalues --    1.05532   1.05656   1.05839   1.06068   1.06449
 Alpha virt. eigenvalues --    1.06616   1.07126   1.07418   1.07565   1.07847
 Alpha virt. eigenvalues --    1.07969   1.08182   1.08429   1.08606   1.08981
 Alpha virt. eigenvalues --    1.09447   1.09901   1.10073   1.10139   1.10599
 Alpha virt. eigenvalues --    1.11008   1.11096   1.11317   1.11758   1.11998
 Alpha virt. eigenvalues --    1.12236   1.12661   1.12943   1.13048   1.13363
 Alpha virt. eigenvalues --    1.14009   1.14170   1.14244   1.14497   1.14707
 Alpha virt. eigenvalues --    1.15146   1.15355   1.15571   1.15861   1.15972
 Alpha virt. eigenvalues --    1.16310   1.17015   1.17479   1.17844   1.18172
 Alpha virt. eigenvalues --    1.18285   1.18596   1.19180   1.19568   1.19691
 Alpha virt. eigenvalues --    1.19904   1.20252   1.20696   1.21135   1.21567
 Alpha virt. eigenvalues --    1.21959   1.22338   1.22459   1.23163   1.23464
 Alpha virt. eigenvalues --    1.23741   1.24185   1.24699   1.25325   1.25567
 Alpha virt. eigenvalues --    1.25822   1.25992   1.26242   1.26856   1.27241
 Alpha virt. eigenvalues --    1.27579   1.27820   1.28220   1.28552   1.28765
 Alpha virt. eigenvalues --    1.28991   1.29660   1.29999   1.30389   1.30614
 Alpha virt. eigenvalues --    1.31022   1.31181   1.31953   1.32049   1.32326
 Alpha virt. eigenvalues --    1.32581   1.32841   1.33290   1.33837   1.34094
 Alpha virt. eigenvalues --    1.35141   1.35477   1.35747   1.36369   1.36645
 Alpha virt. eigenvalues --    1.37071   1.37845   1.37911   1.38201   1.38304
 Alpha virt. eigenvalues --    1.38938   1.39327   1.39910   1.40753   1.41175
 Alpha virt. eigenvalues --    1.41559   1.41750   1.42107   1.42549   1.43053
 Alpha virt. eigenvalues --    1.43321   1.43791   1.44129   1.44363   1.44576
 Alpha virt. eigenvalues --    1.45029   1.45670   1.45713   1.46141   1.46409
 Alpha virt. eigenvalues --    1.46600   1.47404   1.47592   1.47956   1.48396
 Alpha virt. eigenvalues --    1.48883   1.49013   1.50049   1.50604   1.50913
 Alpha virt. eigenvalues --    1.51518   1.52020   1.52087   1.52982   1.53463
 Alpha virt. eigenvalues --    1.53814   1.54006   1.54915   1.55148   1.55543
 Alpha virt. eigenvalues --    1.55699   1.56577   1.56912   1.57586   1.57682
 Alpha virt. eigenvalues --    1.58528   1.58706   1.59194   1.60144   1.60543
 Alpha virt. eigenvalues --    1.61452   1.61891   1.62187   1.62410   1.63165
 Alpha virt. eigenvalues --    1.63384   1.64197   1.64537   1.64916   1.65167
 Alpha virt. eigenvalues --    1.65761   1.66410   1.67176   1.67727   1.67972
 Alpha virt. eigenvalues --    1.68816   1.69461   1.69765   1.69911   1.70195
 Alpha virt. eigenvalues --    1.70951   1.72214   1.72815   1.73568   1.73859
 Alpha virt. eigenvalues --    1.74677   1.75294   1.75707   1.76091   1.76795
 Alpha virt. eigenvalues --    1.77257   1.77468   1.78411   1.78864   1.79292
 Alpha virt. eigenvalues --    1.79402   1.80190   1.80510   1.81210   1.81373
 Alpha virt. eigenvalues --    1.82038   1.82221   1.82449   1.82859   1.83214
 Alpha virt. eigenvalues --    1.84016   1.84418   1.84668   1.85073   1.85498
 Alpha virt. eigenvalues --    1.85956   1.86304   1.86946   1.87610   1.88011
 Alpha virt. eigenvalues --    1.88592   1.89028   1.89271   1.89542   1.90095
 Alpha virt. eigenvalues --    1.90273   1.90471   1.90488   1.91232   1.91767
 Alpha virt. eigenvalues --    1.92168   1.92923   1.93285   1.93604   1.93919
 Alpha virt. eigenvalues --    1.94108   1.94509   1.94696   1.94961   1.95684
 Alpha virt. eigenvalues --    1.96230   1.96546   1.96691   1.97321   1.97472
 Alpha virt. eigenvalues --    1.97960   1.98534   1.99132   1.99468   1.99999
 Alpha virt. eigenvalues --    2.00430   2.00823   2.01049   2.01347   2.01725
 Alpha virt. eigenvalues --    2.02181   2.02312   2.02688   2.03433   2.04164
 Alpha virt. eigenvalues --    2.04715   2.04729   2.05465   2.06492   2.06884
 Alpha virt. eigenvalues --    2.07468   2.08089   2.08866   2.09128   2.09482
 Alpha virt. eigenvalues --    2.10473   2.10706   2.11107   2.11269   2.11756
 Alpha virt. eigenvalues --    2.12303   2.12781   2.12818   2.13178   2.13730
 Alpha virt. eigenvalues --    2.14773   2.15391   2.15737   2.16280   2.16537
 Alpha virt. eigenvalues --    2.17177   2.17496   2.17881   2.18619   2.19179
 Alpha virt. eigenvalues --    2.19289   2.19574   2.20055   2.21285   2.21938
 Alpha virt. eigenvalues --    2.22292   2.22989   2.23185   2.23547   2.24630
 Alpha virt. eigenvalues --    2.24916   2.25548   2.25958   2.26449   2.26708
 Alpha virt. eigenvalues --    2.27316   2.27441   2.27688   2.28326   2.28508
 Alpha virt. eigenvalues --    2.28962   2.29330   2.29677   2.30025   2.30500
 Alpha virt. eigenvalues --    2.31242   2.31663   2.31753   2.32486   2.32834
 Alpha virt. eigenvalues --    2.33176   2.33789   2.34379   2.34818   2.35151
 Alpha virt. eigenvalues --    2.35645   2.36230   2.36590   2.36772   2.37124
 Alpha virt. eigenvalues --    2.37422   2.37770   2.38536   2.39284   2.39865
 Alpha virt. eigenvalues --    2.40249   2.40538   2.41034   2.41432   2.41678
 Alpha virt. eigenvalues --    2.42094   2.42479   2.42984   2.43472   2.43674
 Alpha virt. eigenvalues --    2.44588   2.45025   2.45476   2.45717   2.46365
 Alpha virt. eigenvalues --    2.46766   2.47147   2.47786   2.48132   2.48749
 Alpha virt. eigenvalues --    2.49244   2.50077   2.50588   2.51199   2.51508
 Alpha virt. eigenvalues --    2.51795   2.52700   2.52804   2.53090   2.53837
 Alpha virt. eigenvalues --    2.55003   2.55285   2.55878   2.57051   2.57972
 Alpha virt. eigenvalues --    2.58329   2.58442   2.59360   2.60103   2.60249
 Alpha virt. eigenvalues --    2.60883   2.61825   2.62154   2.62740   2.63081
 Alpha virt. eigenvalues --    2.63979   2.65973   2.66170   2.66934   2.67414
 Alpha virt. eigenvalues --    2.67858   2.69434   2.70561   2.71000   2.71640
 Alpha virt. eigenvalues --    2.71656   2.72309   2.72883   2.73272   2.74077
 Alpha virt. eigenvalues --    2.74223   2.74771   2.74974   2.75840   2.76337
 Alpha virt. eigenvalues --    2.76535   2.77027   2.77369   2.78623   2.80552
 Alpha virt. eigenvalues --    2.81112   2.81704   2.81905   2.83247   2.83628
 Alpha virt. eigenvalues --    2.84216   2.84957   2.85806   2.86449   2.87330
 Alpha virt. eigenvalues --    2.88872   2.89437   2.90672   2.90868   2.91302
 Alpha virt. eigenvalues --    2.91921   2.92554   2.92974   2.96189   3.03226
 Alpha virt. eigenvalues --    3.05701   3.07164   3.07533   3.07670   3.08625
 Alpha virt. eigenvalues --    3.08849   3.09534   3.09850   3.10625   3.11267
 Alpha virt. eigenvalues --    3.11741   3.11939   3.12250   3.12722   3.12956
 Alpha virt. eigenvalues --    3.13353   3.13949   3.13993   3.14257   3.14776
 Alpha virt. eigenvalues --    3.15769   3.16382   3.16794   3.18396   3.19184
 Alpha virt. eigenvalues --    3.19368   3.19965   3.20098   3.20609   3.21174
 Alpha virt. eigenvalues --    3.21582   3.21934   3.22066   3.23184   3.23551
 Alpha virt. eigenvalues --    3.24992   3.25666   3.27255   3.28517   3.30513
 Alpha virt. eigenvalues --    3.31824   3.33352   3.33882   3.34266   3.34515
 Alpha virt. eigenvalues --    3.34943   3.35607   3.36580   3.37431   3.38610
 Alpha virt. eigenvalues --    3.39184   3.39578   3.40173   3.41555   3.42288
 Alpha virt. eigenvalues --    3.42731   3.44814   3.45490   3.47280   3.50740
 Alpha virt. eigenvalues --    3.52567   3.55082   3.56641   3.59348   3.63875
 Alpha virt. eigenvalues --    3.69098   3.74220   3.76704   3.92109   3.93405
 Alpha virt. eigenvalues --    3.95738   4.02777   4.06998   4.15271   4.16158
 Alpha virt. eigenvalues --    4.17328   4.17823   4.18466   4.19686   4.21015
 Alpha virt. eigenvalues --    4.23124   4.33373   4.35434   4.35957   4.37820
 Alpha virt. eigenvalues --    4.38872   4.39889   4.40322   4.42657   4.50394
 Alpha virt. eigenvalues --    4.51618   4.52710   4.55617   4.58809   4.59703
 Alpha virt. eigenvalues --    5.46355   5.47655   5.57494   5.61881   5.62543
 Alpha virt. eigenvalues --    5.67237   5.75817   5.93368   6.09047   6.66894
 Alpha virt. eigenvalues --    6.67761   6.67948   6.69239   6.69437   6.70223
 Alpha virt. eigenvalues --    6.71033   6.71354   6.71611   6.72102   6.73143
 Alpha virt. eigenvalues --    6.74287   6.74493   6.74647   6.76441   6.78208
 Alpha virt. eigenvalues --    6.81832   6.82014   6.82934   6.83626   6.85034
 Alpha virt. eigenvalues --    6.87107   6.87554   6.88392   6.88707   6.88890
 Alpha virt. eigenvalues --    6.89646   6.90497   6.91309   6.91676   6.92734
 Alpha virt. eigenvalues --    6.93227   6.93760   6.94319   6.94807   6.95300
 Alpha virt. eigenvalues --    6.97787   6.98795   6.99743   7.00508   7.01011
 Alpha virt. eigenvalues --    7.02008   7.02522   7.03998   7.05604   7.06184
 Alpha virt. eigenvalues --    7.06914   7.08859   7.10368   7.11534   7.13040
 Alpha virt. eigenvalues --    7.15355   7.64290   7.69001   7.70324   7.71937
 Alpha virt. eigenvalues --    7.76184   7.77856   8.48109   8.48117   8.48549
 Alpha virt. eigenvalues --    8.48758   8.50138   8.51056   8.52025   8.54397
 Alpha virt. eigenvalues --    8.59771   8.94251   9.81984   9.83270   9.84209
 Alpha virt. eigenvalues --    9.84448   9.85385   9.86106   9.87654   9.87813
 Alpha virt. eigenvalues --    9.89026   9.89684   9.91169   9.91304   9.92166
 Alpha virt. eigenvalues --    9.98075  10.00083  10.00548  10.02022  10.03093
 Alpha virt. eigenvalues --   10.04861  10.06022  10.07384  10.09832  10.23371
 Alpha virt. eigenvalues --   14.06753  14.11901  15.59007  15.63877  16.71736
 Alpha virt. eigenvalues --   16.73218  16.77785  16.82320  16.92273  16.94822
 Alpha virt. eigenvalues --   17.00930  17.01573  17.02173  17.03561  17.04915
 Alpha virt. eigenvalues --   17.06848  17.10688  17.12355  17.13552  17.14496
 Alpha virt. eigenvalues --   17.15334  17.17638  17.20726  17.24002  17.26177
 Alpha virt. eigenvalues --   17.30558  17.35103  17.36825  20.99055  21.16346
 Alpha virt. eigenvalues --   21.29606  25.45587  25.46216  25.53586  25.55941
 Alpha virt. eigenvalues --   25.57264  25.60921  26.10354  31.65225  31.67331
 Alpha virt. eigenvalues --   31.67809  31.70166  31.72426  31.73021  31.73994
 Alpha virt. eigenvalues --   31.76095  31.79159  31.79656  42.92982  42.99120
 Alpha virt. eigenvalues --   43.00841  43.03288  43.13946  61.78439  61.83085
 Alpha virt. eigenvalues --   62.96092  63.00439  78.03970  78.05367  78.09302
 Alpha virt. eigenvalues --   78.13400  78.22140  78.24212  82.14661  86.11578
 Alpha virt. eigenvalues --   86.25937  86.36345  89.25943  89.26813  89.27571
 Alpha virt. eigenvalues --   89.28725  89.30104  89.32193  89.36418  89.37487
 Alpha virt. eigenvalues --   89.38864  89.40280  89.41036  89.43304  89.47312
 Alpha virt. eigenvalues --   89.50121  89.52030  89.56445  89.61054  89.63037
 Alpha virt. eigenvalues --  121.80969 121.81380 121.86555 121.88240 121.89202
 Alpha virt. eigenvalues --  121.91952 239.14335 239.18168 257.25808 332.11119
 Alpha virt. eigenvalues --  332.16077 428.72098 428.83523 428.91602 431.65528
 Alpha virt. eigenvalues --  431.67038 431.71170 431.75485 431.84651 431.86834
 Alpha virt. eigenvalues --  590.18479 590.18768 590.22758 590.24093 590.24818
 Alpha virt. eigenvalues --  590.26910 772.93743 839.54597 839.580082068.54021
 Alpha virt. eigenvalues -- 2529.924842529.955375495.34304********************
 Alpha virt. eigenvalues -- ********************
          Condensed to atoms (all electrons):
 Mulliken charges:
               1
     1  Pt   0.245035
     2  Sn   0.240988
     3  Sn   0.295243
     4  Cl  -0.219715
     5  Cl  -0.227103
     6  Cl  -0.151985
     7  Cl  -0.143745
     8  Cl  -0.226979
     9  Cl  -0.240178
    10  C   -0.212381
    11  H    0.043907
    12  H    0.060022
    13  C   -0.210745
    14  H    0.059374
    15  H    0.066652
    16  C   -0.354666
    17  H    0.080124
    18  H    0.096316
    19  C   -0.177603
    20  H    0.042672
    21  H    0.045182
    22  C   -0.138118
    23  H    0.080142
    24  H    0.087739
    25  C   -0.106280
    26  H    0.068866
    27  H    0.046839
    28  C   -0.124620
    29  H    0.078935
    30  H    0.082098
    31  C   -0.090828
    32  H    0.103591
    33  H    0.029960
    34  C   -0.117833
    35  H    0.082310
    36  H    0.081269
    37  C   -0.106477
    38  H    0.084754
    39  H    0.085148
    40  C   -0.196632
    41  H    0.111531
    42  H    0.060876
    43  C   -0.169515
    44  H    0.084147
    45  H    0.074644
    46  P   -0.074296
    47  P   -0.138992
    48  C   -0.240372
    49  H    0.147244
    50  H    0.119323
    51  H    0.118672
    52  C   -0.214744
    53  H    0.129018
    54  H    0.138698
    55  H    0.116416
    56  C   -0.180696
    57  H    0.082748
    58  H    0.126432
    59  H    0.115531
    60  C   -0.244383
    61  H    0.143634
    62  H    0.121327
    63  H    0.128115
    64  C   -0.140381
    65  H    0.060486
    66  H    0.133196
    67  H    0.111562
    68  C   -0.247849
    69  H    0.121361
    70  H    0.143188
    71  H    0.121804
 Sum of Mulliken charges =   0.00000
 Mulliken charges with hydrogens summed into heavy atoms:
               1
     1  Pt   0.245035
     2  Sn   0.240988
     3  Sn   0.295243
     4  Cl  -0.219715
     5  Cl  -0.227103
     6  Cl  -0.151985
     7  Cl  -0.143745
     8  Cl  -0.226979
     9  Cl  -0.240178
    10  C   -0.108452
    13  C   -0.084720
    16  C   -0.178226
    19  C   -0.089749
    22  C    0.029764
    25  C    0.009425
    28  C    0.036414
    31  C    0.042723
    34  C    0.045745
    37  C    0.063426
    40  C   -0.024225
    43  C   -0.010724
    46  P   -0.074296
    47  P   -0.138992
    48  C    0.144867
    52  C    0.169388
    56  C    0.144014
    60  C    0.148693
    64  C    0.164863
    68  C    0.138503
 Electronic spatial extent (au):  <R**2>=          23703.2708
 Charge=              0.0000 electrons
 Dipole moment (field-independent basis, Debye):
    X=             -1.6504    Y=              1.0903    Z=              6.8930  Tot=              7.1712
 Quadrupole moment (field-independent basis, Debye-Ang):
   XX=           -284.3916   YY=           -359.8124   ZZ=           -310.0577
   XY=            -50.4657   XZ=              5.8644   YZ=             -0.6830
 Traceless Quadrupole moment (field-independent basis, Debye-Ang):
   XX=             33.6957   YY=            -41.7252   ZZ=              8.0295
   XY=            -50.4657   XZ=              5.8644   YZ=             -0.6830
 Octapole moment (field-independent basis, Debye-Ang**2):
  XXX=             -8.5499  YYY=             30.4800  ZZZ=              4.0829  XYY=            -13.7507
  XXY=             -4.8214  XXZ=             20.3178  XZZ=              1.2985  YZZ=            -11.7843
  YYZ=             26.5612  XYZ=              8.5220
 Hexadecapole moment (field-independent basis, Debye-Ang**3):
 XXXX=         -13844.3920 YYYY=         -12267.0990 ZZZZ=          -5174.6161 XXXY=           -167.7602
 XXXZ=             90.7878 YYYX=           -221.0511 YYYZ=            -32.7163 ZZZX=            -13.0806
 ZZZY=            -64.5269 XXYY=          -4395.3426 XXZZ=          -3235.6220 YYZZ=          -2892.9837
 XXYZ=              5.0463 YYXZ=             14.3476 ZZXY=            -78.2611
 N-N= 1.208688260984D+04 E-N=-1.027853126354D+05  KE= 3.272310613782D+04
 Calculating spin-rotation constants.
 Leave Link  601 at Sat Sep  8 22:46:22 2018, MaxMem=  2013265920 cpu:       839.3
 (Enter /scr/programs/g09/l9999.exe)
 1\1\GINC-NEQC17\SP\RPBEPBE\Gen\C18H42Cl6P2Pt1Sn2\DIEGO\08-Sep-2018\0\\
 #PBEPBE/gen scf=(maxcycle=1000,conver=4) NMR=GIAO Scrf=(solvent=Dichlo
 romethane)\\estrutura 10\\0,1\Pt,0,0.004039,-0.010068,-0.042297\Sn,0,-
 1.081844,-2.428383,-0.383304\Sn,0,1.275462,2.256881,-0.632042\Cl,0,3.2
 58204,1.910221,-2.004222\Cl,0,2.119163,3.564606,1.236609\Cl,0,0.441053
 ,4.092444,-1.972433\Cl,0,0.232006,-4.451981,-0.700089\Cl,0,-2.344372,-
 2.629972,-2.447096\Cl,0,-2.60857,-3.320709,1.285984\C,0,3.452521,0.117
 509,1.119175\H,0,3.835272,0.6379,0.227251\H,0,2.950404,0.881804,1.7308
 42\C,0,2.827737,-1.841069,-1.037478\H,0,2.09292,-2.614935,-1.311175\H,
 0,2.769305,-1.059524,-1.812575\C,0,1.948277,-2.353129,1.776742\H,0,1.5
 68284,-3.23697,1.242004\H,0,2.958667,-2.618022,2.126751\C,0,-3.624868,
 -0.095212,-0.165887\H,0,-3.423816,-0.620761,-1.112626\H,0,-3.524596,-0
 .847687,0.630683\C,0,-2.541133,2.393289,-1.274195\H,0,-3.346543,1.9895
 65,-1.907551\H,0,-1.648617,2.439619,-1.910508\C,0,-2.188693,1.801858,1
 .72814\H,0,-2.049346,2.889024,1.618387\H,0,-1.263902,1.429494,2.197292
 \C,0,4.625969,-0.481173,1.912258\H,0,5.085998,-1.31302,1.358236\H,0,4.
 261657,-0.904768,2.860388\C,0,1.027078,-2.034383,2.968342\H,0,0.909833
 ,-2.973169,3.536587\H,0,0.019457,-1.788294,2.593578\C,0,4.23768,-2.446
 641,-1.010257\H,0,4.338444,-3.154362,-0.17082\H,0,4.981408,-1.64946,-0
 .844806\C,0,-5.064847,0.437704,-0.206401\H,0,-5.337614,0.889151,0.7579
 72\H,0,-5.160371,1.233327,-0.960823\C,0,-2.886652,3.817843,-0.805649\H
 ,0,-2.737468,4.477921,-1.676117\H,0,-2.141892,4.160138,-0.068456\C,0,-
 3.370237,1.504583,2.663011\H,0,-4.294181,1.946257,2.261663\H,0,-3.5424
 23,0.416303,2.71511\P,0,2.139397,-1.0369,0.480625\P,0,-2.188511,1.0687
 73,0.004069\C,0,-6.052606,-0.685481,-0.538948\H,0,-7.088085,-0.308986,
 -0.549416\H,0,-5.841163,-1.121539,-1.529034\H,0,-5.995646,-1.501478,0.
 200396\C,0,-3.123925,2.04726,4.072645\H,0,-2.98149,3.139946,4.062108\H
 ,0,-3.977257,1.825098,4.731187\H,0,-2.224698,1.597689,4.523277\C,0,-4.
 301776,4.016655,-0.263455\H,0,-4.534148,3.324427,0.559994\H,0,-4.43332
 4,5.0394,0.118714\H,0,-5.05519,3.855133,-1.049994\C,0,4.55816,-3.16724
 5,-2.323036\H,0,5.585383,-3.562762,-2.317178\H,0,3.870652,-4.012328,-2
 .490203\H,0,4.465571,-2.485897,-3.183237\C,0,1.494519,-0.931893,3.9189
 29\H,0,1.522983,0.056071,3.433303\H,0,0.80867,-0.852497,4.776275\H,0,2
 .497945,-1.139248,4.321444\C,0,5.69182,0.577184,2.210293\H,0,5.272495,
 1.418373,2.786986\H,0,6.519634,0.145745,2.795286\H,0,6.116231,0.991336
 ,1.280638\\Version=EM64L-G09RevD.01\State=1-A\HF=-33224.119741\RMSD=4.
 107e-05\Dipole=-0.6493234,0.428955,2.7119286\Quadrupole=25.0519065,-31
 .0216488,5.9697423,-37.520052,4.3600218,-0.5077972\PG=C01 [X(C18H42Cl6
 P2Pt1Sn2)]\\@


 HONESTY IN A LAWYER IS LIKE A HEN'S HIND LEGS.
  -- MAGNUS OLESON, LAKE WOBEGON PATRIARCH, C.1875
 Job cpu time:       0 days 21 hours 13 minutes 35.2 seconds.
 File lengths (MBytes):  RWF=   1592 Int=      0 D2E=      0 Chk=    116 Scr=      1
 Normal termination of Gaussian 09 at Sat Sep  8 22:46:23 2018.
