 Entering Gaussian System, Link 0=g09
 Input=estrutura13.com
 Output=estrutura13.log
 Initial command:
 /scr/programs/g09/l1.exe "/scr/diego/Gau-8328.inp" -scrdir="/scr/diego/"
 Entering Link 1 = /scr/programs/g09/l1.exe PID=      8329.
  
 Copyright (c) 1988,1990,1992,1993,1995,1998,2003,2009,2013,
            Gaussian, Inc.  All Rights Reserved.
  
 This is part of the Gaussian(R) 09 program.  It is based on
 the Gaussian(R) 03 system (copyright 2003, Gaussian, Inc.),
 the Gaussian(R) 98 system (copyright 1998, Gaussian, Inc.),
 the Gaussian(R) 94 system (copyright 1995, Gaussian, Inc.),
 the Gaussian 92(TM) system (copyright 1992, Gaussian, Inc.),
 the Gaussian 90(TM) system (copyright 1990, Gaussian, Inc.),
 the Gaussian 88(TM) system (copyright 1988, Gaussian, Inc.),
 the Gaussian 86(TM) system (copyright 1986, Carnegie Mellon
 University), and the Gaussian 82(TM) system (copyright 1983,
 Carnegie Mellon University). Gaussian is a federally registered
 trademark of Gaussian, Inc.
  
 This software contains proprietary and confidential information,
 including trade secrets, belonging to Gaussian, Inc.
  
 This software is provided under written license and may be
 used, copied, transmitted, or stored only in accord with that
 written license.
  
 The following legend is applicable only to US Government
 contracts under FAR:
  
                    RESTRICTED RIGHTS LEGEND
  
 Use, reproduction and disclosure by the US Government is
 subject to restrictions as set forth in subparagraphs (a)
 and (c) of the Commercial Computer Software - Restricted
 Rights clause in FAR 52.227-19.
  
 Gaussian, Inc.
 340 Quinnipiac St., Bldg. 40, Wallingford CT 06492
  
  
 ---------------------------------------------------------------
 Warning -- This program may not be used in any manner that
 competes with the business of Gaussian, Inc. or will provide
 assistance to any competitor of Gaussian, Inc.  The licensee
 of this program is prohibited from giving any competitor of
 Gaussian, Inc. access to this program.  By using this program,
 the user acknowledges that Gaussian, Inc. is engaged in the
 business of creating and licensing software in the field of
 computational chemistry and represents and warrants to the
 licensee that it is not a competitor of Gaussian, Inc. and that
 it will not use this program in any manner prohibited above.
 ---------------------------------------------------------------
  

 Cite this work as:
 Gaussian 09, Revision D.01,
 M. J. Frisch, G. W. Trucks, H. B. Schlegel, G. E. Scuseria, 
 M. A. Robb, J. R. Cheeseman, G. Scalmani, V. Barone, B. Mennucci, 
 G. A. Petersson, H. Nakatsuji, M. Caricato, X. Li, H. P. Hratchian, 
 A. F. Izmaylov, J. Bloino, G. Zheng, J. L. Sonnenberg, M. Hada, 
 M. Ehara, K. Toyota, R. Fukuda, J. Hasegawa, M. Ishida, T. Nakajima, 
 Y. Honda, O. Kitao, H. Nakai, T. Vreven, J. A. Montgomery, Jr., 
 J. E. Peralta, F. Ogliaro, M. Bearpark, J. J. Heyd, E. Brothers, 
 K. N. Kudin, V. N. Staroverov, T. Keith, R. Kobayashi, J. Normand, 
 K. Raghavachari, A. Rendell, J. C. Burant, S. S. Iyengar, J. Tomasi, 
 M. Cossi, N. Rega, J. M. Millam, M. Klene, J. E. Knox, J. B. Cross, 
 V. Bakken, C. Adamo, J. Jaramillo, R. Gomperts, R. E. Stratmann, 
 O. Yazyev, A. J. Austin, R. Cammi, C. Pomelli, J. W. Ochterski, 
 R. L. Martin, K. Morokuma, V. G. Zakrzewski, G. A. Voth, 
 P. Salvador, J. J. Dannenberg, S. Dapprich, A. D. Daniels, 
 O. Farkas, J. B. Foresman, J. V. Ortiz, J. Cioslowski, 
 and D. J. Fox, Gaussian, Inc., Wallingford CT, 2013.
 
 ******************************************
 Gaussian 09:  EM64L-G09RevD.01 24-Apr-2013
                 6-Sep-2018 
 ******************************************
 %mem=15Gb
 %nproc=8
 Will use up to    8 processors via shared memory.
 ----------------------------------------------------------------------
 #PBEPBE/gen scf=(maxcycle=1000,conver=4) NMR=GIAO Scrf=(solvent=Chloro
 form)
 ----------------------------------------------------------------------
 1/38=1/1;
 2/12=2,17=6,18=5,40=1/2;
 3/5=7,11=2,16=1,25=1,30=1,70=2201,72=7,74=1009/1,2,8,3;
 4//1;
 5/5=2,6=4,7=1000,38=5,53=7/2;
 8/6=1,10=90,11=11/1;
 10/13=100,45=16/2;
 6/7=2,8=2,9=2,10=2,28=1/1;
 99/9=1/99;
 Leave Link    1 at Thu Sep  6 04:43:44 2018, MaxMem=  2013265920 cpu:         0.4
 (Enter /scr/programs/g09/l101.exe)
 ------------
 estrutura 13
 ------------
 Symbolic Z-matrix:
 Charge =  0 Multiplicity = 1
 Pt                   -0.16081  -1.05685  -0.11551 
 Sn                   -2.50849  -2.29995  -0.04553 
 Cl                   -4.62567  -1.12871   0.16639 
 Cl                   -2.73694  -3.74168   1.88575 
 Cl                   -3.06892  -3.77859  -1.86791 
 Cl                    0.57163  -3.35428  -0.32921 
 As                   -1.16813   1.1442   -0.02612 
 As                    2.22206  -0.32719   0.02653 
 C                    -0.07961   2.74747  -0.31925 
 C                     0.53652   3.40284   0.75698 
 C                     0.06336   3.27853  -1.61063 
 C                     1.26266   4.57727   0.54254 
 H                     0.43976   3.01478   1.77327 
 C                     0.79712   4.449    -1.81521 
 H                    -0.41342   2.79445  -2.46515 
 C                     1.40458   5.12475  -0.744 
 H                     1.72193   5.08094   1.39773 
 H                     0.88834   4.85097  -2.82881 
 C                    -2.05951   1.55819   1.65826 
 C                    -2.54893   2.85105   1.91521 
 C                    -2.22121   0.56763   2.63496 
 C                    -3.20464   3.13051   3.11393 
 H                    -2.40943   3.65429   1.19036 
 C                    -2.87196   0.85873   3.83769 
 H                    -1.8365   -0.44359   2.472 
 C                    -3.38241   2.13783   4.09723 
 H                    -3.58436   4.13957   3.29122 
 H                    -2.98404   0.06826   4.5861 
 C                    -2.499     1.31605  -1.44969 
 C                    -3.61539   2.15615  -1.32919 
 C                    -2.31131   0.59848  -2.63871 
 C                    -4.51564   2.28191  -2.38695 
 H                    -3.80645   2.70168  -0.40447 
 C                    -3.21805   0.73279  -3.69514 
 H                    -1.46512  -0.08709  -2.74274 
 C                    -4.33268   1.57949  -3.59153 
 H                    -5.38624   2.93451  -2.27024 
 H                    -3.05821   0.15736  -4.61172 
 C                     2.5187    0.69091   1.66698 
 C                     3.42523   1.75267   1.80375 
 C                     1.81259   0.25136   2.79684 
 C                     3.63305   2.34054   3.05263 
 H                     3.96797   2.14029   0.94123 
 C                     2.03192   0.84257   4.04467 
 H                     1.08613  -0.56148   2.70815 
 C                     2.9518    1.89097   4.19843 
 H                     4.34614   3.16561   3.13938 
 H                     1.47795   0.47627   4.91336 
 C                     2.88624   0.62249  -1.54351 
 C                     4.17185   1.18371  -1.60254 
 C                     2.09702   0.61323  -2.70384 
 C                     4.63836   1.74902  -2.7918 
 H                     4.83483   1.16317  -0.73458 
 C                     2.57968   1.16081  -3.89363 
 H                     1.10468   0.15704  -2.68388 
 C                     3.85621   1.74388  -3.95938 
 H                     5.64135   2.18816  -2.81598 
 H                     1.9524    1.12888  -4.78953 
 C                     3.56663  -1.74369   0.17789 
 C                     3.98215  -2.41871  -0.97966 
 C                     4.12749  -2.09817   1.41187 
 C                     4.95653  -3.41479  -0.90109 
 H                     3.55251  -2.16993  -1.95268 
 C                     5.10189  -3.0978    1.47925 
 H                     3.81759  -1.59565   2.32999 
 C                     5.54034  -3.76905   0.32688 
 H                     5.2686   -3.92888  -1.81463 
 H                     5.53188  -3.35681   2.45107 
 C                    -4.11136   2.451     5.3792 
 H                    -3.77994   3.4117    5.80633 
 H                    -5.19747   2.53702   5.19853 
 H                    -3.96072   1.66475   6.13337 
 C                    -5.30605   1.74367  -4.73131 
 H                    -6.34902   1.68497  -4.37814 
 H                    -5.18418   2.73053  -5.21246 
 H                    -5.15995   0.97378  -5.50384 
 C                     2.19227   6.39128  -0.97141 
 H                     1.81062   6.95294  -1.83758 
 H                     2.1605    7.04999  -0.09059 
 H                     3.25419   6.16446  -1.17216 
 C                     3.20455   2.52293   5.54415 
 H                     2.67912   1.98705   6.34801 
 H                     4.28045   2.5285    5.78282 
 H                     2.86691   3.5728    5.56143 
 C                     6.62346  -4.81579   0.40264 
 H                     6.5524   -5.53286  -0.42889 
 H                     7.62344  -4.34974   0.3491 
 H                     6.57793  -5.37632   1.34911 
 C                     4.38102   2.30891  -5.25582 
 H                     5.29619   2.89871  -5.10149 
 H                     4.62219   1.49955  -5.9664 
 H                     3.63253   2.952    -5.74552 
 
 NAtoms=     92 NQM=       92 NQMF=       0 NMMI=      0 NMMIF=      0
                NMic=       0 NMicF=      0.
                    Isotopes and Nuclear Properties:
 (Nuclear quadrupole moments (NQMom) in fm**2, nuclear magnetic moments (NMagM)
  in nuclear magnetons)

  Atom         1           2           3           4           5           6           7           8           9          10
 IAtWgt=         195         118          35          35          35          35          75          75          12          12
 AtmWgt= 194.9648000 117.9018000  34.9688527  34.9688527  34.9688527  34.9688527  74.9215955  74.9215955  12.0000000  12.0000000
 NucSpn=           1           0           3           3           3           3           3           3           0           0
 AtZEff=   0.0000000   0.0000000   0.0000000   0.0000000   0.0000000   0.0000000   0.0000000   0.0000000   0.0000000   0.0000000
 NQMom=    0.0000000   0.0000000  -8.1650000  -8.1650000  -8.1650000  -8.1650000  31.4000000  31.4000000   0.0000000   0.0000000
 NMagM=    0.6095000   0.0000000   0.8218740   0.8218740   0.8218740   0.8218740   1.4394700   1.4394700   0.0000000   0.0000000
 AtZNuc=  78.0000000  50.0000000  17.0000000  17.0000000  17.0000000  17.0000000  33.0000000  33.0000000   6.0000000   6.0000000

  Atom        11          12          13          14          15          16          17          18          19          20
 IAtWgt=          12          12           1          12           1          12           1           1          12          12
 AtmWgt=  12.0000000  12.0000000   1.0078250  12.0000000   1.0078250  12.0000000   1.0078250   1.0078250  12.0000000  12.0000000
 NucSpn=           0           0           1           0           1           0           1           1           0           0
 AtZEff=   0.0000000   0.0000000   0.0000000   0.0000000   0.0000000   0.0000000   0.0000000   0.0000000   0.0000000   0.0000000
 NQMom=    0.0000000   0.0000000   0.0000000   0.0000000   0.0000000   0.0000000   0.0000000   0.0000000   0.0000000   0.0000000
 NMagM=    0.0000000   0.0000000   2.7928460   0.0000000   2.7928460   0.0000000   2.7928460   2.7928460   0.0000000   0.0000000
 AtZNuc=   6.0000000   6.0000000   1.0000000   6.0000000   1.0000000   6.0000000   1.0000000   1.0000000   6.0000000   6.0000000

  Atom        21          22          23          24          25          26          27          28          29          30
 IAtWgt=          12          12           1          12           1          12           1           1          12          12
 AtmWgt=  12.0000000  12.0000000   1.0078250  12.0000000   1.0078250  12.0000000   1.0078250   1.0078250  12.0000000  12.0000000
 NucSpn=           0           0           1           0           1           0           1           1           0           0
 AtZEff=   0.0000000   0.0000000   0.0000000   0.0000000   0.0000000   0.0000000   0.0000000   0.0000000   0.0000000   0.0000000
 NQMom=    0.0000000   0.0000000   0.0000000   0.0000000   0.0000000   0.0000000   0.0000000   0.0000000   0.0000000   0.0000000
 NMagM=    0.0000000   0.0000000   2.7928460   0.0000000   2.7928460   0.0000000   2.7928460   2.7928460   0.0000000   0.0000000
 AtZNuc=   6.0000000   6.0000000   1.0000000   6.0000000   1.0000000   6.0000000   1.0000000   1.0000000   6.0000000   6.0000000

  Atom        31          32          33          34          35          36          37          38          39          40
 IAtWgt=          12          12           1          12           1          12           1           1          12          12
 AtmWgt=  12.0000000  12.0000000   1.0078250  12.0000000   1.0078250  12.0000000   1.0078250   1.0078250  12.0000000  12.0000000
 NucSpn=           0           0           1           0           1           0           1           1           0           0
 AtZEff=   0.0000000   0.0000000   0.0000000   0.0000000   0.0000000   0.0000000   0.0000000   0.0000000   0.0000000   0.0000000
 NQMom=    0.0000000   0.0000000   0.0000000   0.0000000   0.0000000   0.0000000   0.0000000   0.0000000   0.0000000   0.0000000
 NMagM=    0.0000000   0.0000000   2.7928460   0.0000000   2.7928460   0.0000000   2.7928460   2.7928460   0.0000000   0.0000000
 AtZNuc=   6.0000000   6.0000000   1.0000000   6.0000000   1.0000000   6.0000000   1.0000000   1.0000000   6.0000000   6.0000000

  Atom        41          42          43          44          45          46          47          48          49          50
 IAtWgt=          12          12           1          12           1          12           1           1          12          12
 AtmWgt=  12.0000000  12.0000000   1.0078250  12.0000000   1.0078250  12.0000000   1.0078250   1.0078250  12.0000000  12.0000000
 NucSpn=           0           0           1           0           1           0           1           1           0           0
 AtZEff=   0.0000000   0.0000000   0.0000000   0.0000000   0.0000000   0.0000000   0.0000000   0.0000000   0.0000000   0.0000000
 NQMom=    0.0000000   0.0000000   0.0000000   0.0000000   0.0000000   0.0000000   0.0000000   0.0000000   0.0000000   0.0000000
 NMagM=    0.0000000   0.0000000   2.7928460   0.0000000   2.7928460   0.0000000   2.7928460   2.7928460   0.0000000   0.0000000
 AtZNuc=   6.0000000   6.0000000   1.0000000   6.0000000   1.0000000   6.0000000   1.0000000   1.0000000   6.0000000   6.0000000

  Atom        51          52          53          54          55          56          57          58          59          60
 IAtWgt=          12          12           1          12           1          12           1           1          12          12
 AtmWgt=  12.0000000  12.0000000   1.0078250  12.0000000   1.0078250  12.0000000   1.0078250   1.0078250  12.0000000  12.0000000
 NucSpn=           0           0           1           0           1           0           1           1           0           0
 AtZEff=   0.0000000   0.0000000   0.0000000   0.0000000   0.0000000   0.0000000   0.0000000   0.0000000   0.0000000   0.0000000
 NQMom=    0.0000000   0.0000000   0.0000000   0.0000000   0.0000000   0.0000000   0.0000000   0.0000000   0.0000000   0.0000000
 NMagM=    0.0000000   0.0000000   2.7928460   0.0000000   2.7928460   0.0000000   2.7928460   2.7928460   0.0000000   0.0000000
 AtZNuc=   6.0000000   6.0000000   1.0000000   6.0000000   1.0000000   6.0000000   1.0000000   1.0000000   6.0000000   6.0000000

  Atom        61          62          63          64          65          66          67          68          69          70
 IAtWgt=          12          12           1          12           1          12           1           1          12           1
 AtmWgt=  12.0000000  12.0000000   1.0078250  12.0000000   1.0078250  12.0000000   1.0078250   1.0078250  12.0000000   1.0078250
 NucSpn=           0           0           1           0           1           0           1           1           0           1
 AtZEff=   0.0000000   0.0000000   0.0000000   0.0000000   0.0000000   0.0000000   0.0000000   0.0000000   0.0000000   0.0000000
 NQMom=    0.0000000   0.0000000   0.0000000   0.0000000   0.0000000   0.0000000   0.0000000   0.0000000   0.0000000   0.0000000
 NMagM=    0.0000000   0.0000000   2.7928460   0.0000000   2.7928460   0.0000000   2.7928460   2.7928460   0.0000000   2.7928460
 AtZNuc=   6.0000000   6.0000000   1.0000000   6.0000000   1.0000000   6.0000000   1.0000000   1.0000000   6.0000000   1.0000000

  Atom        71          72          73          74          75          76          77          78          79          80
 IAtWgt=           1           1          12           1           1           1          12           1           1           1
 AtmWgt=   1.0078250   1.0078250  12.0000000   1.0078250   1.0078250   1.0078250  12.0000000   1.0078250   1.0078250   1.0078250
 NucSpn=           1           1           0           1           1           1           0           1           1           1
 AtZEff=   0.0000000   0.0000000   0.0000000   0.0000000   0.0000000   0.0000000   0.0000000   0.0000000   0.0000000   0.0000000
 NQMom=    0.0000000   0.0000000   0.0000000   0.0000000   0.0000000   0.0000000   0.0000000   0.0000000   0.0000000   0.0000000
 NMagM=    2.7928460   2.7928460   0.0000000   2.7928460   2.7928460   2.7928460   0.0000000   2.7928460   2.7928460   2.7928460
 AtZNuc=   1.0000000   1.0000000   6.0000000   1.0000000   1.0000000   1.0000000   6.0000000   1.0000000   1.0000000   1.0000000

  Atom        81          82          83          84          85          86          87          88          89          90
 IAtWgt=          12           1           1           1          12           1           1           1          12           1
 AtmWgt=  12.0000000   1.0078250   1.0078250   1.0078250  12.0000000   1.0078250   1.0078250   1.0078250  12.0000000   1.0078250
 NucSpn=           0           1           1           1           0           1           1           1           0           1
 AtZEff=   0.0000000   0.0000000   0.0000000   0.0000000   0.0000000   0.0000000   0.0000000   0.0000000   0.0000000   0.0000000
 NQMom=    0.0000000   0.0000000   0.0000000   0.0000000   0.0000000   0.0000000   0.0000000   0.0000000   0.0000000   0.0000000
 NMagM=    0.0000000   2.7928460   2.7928460   2.7928460   0.0000000   2.7928460   2.7928460   2.7928460   0.0000000   2.7928460
 AtZNuc=   6.0000000   1.0000000   1.0000000   1.0000000   6.0000000   1.0000000   1.0000000   1.0000000   6.0000000   1.0000000

  Atom        91          92
 IAtWgt=           1           1
 AtmWgt=   1.0078250   1.0078250
 NucSpn=           1           1
 AtZEff=   0.0000000   0.0000000
 NQMom=    0.0000000   0.0000000
 NMagM=    2.7928460   2.7928460
 AtZNuc=   1.0000000   1.0000000
 Leave Link  101 at Thu Sep  6 04:43:44 2018, MaxMem=  2013265920 cpu:         1.5
 (Enter /scr/programs/g09/l202.exe)
 Stoichiometry    C42H42As2Cl4PtSn
 Framework group  C1[X(C42H42As2Cl4PtSn)]
 Deg. of freedom   270
 Full point group                 C1      NOp   1
 Largest Abelian subgroup         C1      NOp   1
 Largest concise Abelian subgroup C1      NOp   1
                         Standard orientation:                         
 ---------------------------------------------------------------------
 Center     Atomic      Atomic             Coordinates (Angstroms)
 Number     Number       Type             X           Y           Z
 ---------------------------------------------------------------------
      1         78           0       -0.160806   -1.056853   -0.115510
      2         50           0       -2.508487   -2.299950   -0.045528
      3         17           0       -4.625669   -1.128711    0.166392
      4         17           0       -2.736939   -3.741684    1.885749
      5         17           0       -3.068917   -3.778591   -1.867906
      6         17           0        0.571626   -3.354281   -0.329208
      7         33           0       -1.168134    1.144196   -0.026116
      8         33           0        2.222055   -0.327188    0.026525
      9          6           0       -0.079606    2.747470   -0.319253
     10          6           0        0.536520    3.402842    0.756981
     11          6           0        0.063357    3.278528   -1.610625
     12          6           0        1.262662    4.577271    0.542543
     13          1           0        0.439764    3.014783    1.773269
     14          6           0        0.797116    4.448998   -1.815212
     15          1           0       -0.413419    2.794452   -2.465150
     16          6           0        1.404582    5.124750   -0.744000
     17          1           0        1.721928    5.080940    1.397729
     18          1           0        0.888344    4.850967   -2.828811
     19          6           0       -2.059509    1.558190    1.658259
     20          6           0       -2.548933    2.851045    1.915206
     21          6           0       -2.221209    0.567630    2.634958
     22          6           0       -3.204642    3.130506    3.113925
     23          1           0       -2.409433    3.654291    1.190361
     24          6           0       -2.871958    0.858732    3.837687
     25          1           0       -1.836497   -0.443594    2.472000
     26          6           0       -3.382410    2.137832    4.097228
     27          1           0       -3.584359    4.139568    3.291218
     28          1           0       -2.984044    0.068261    4.586105
     29          6           0       -2.499003    1.316045   -1.449693
     30          6           0       -3.615390    2.156149   -1.329192
     31          6           0       -2.311314    0.598477   -2.638711
     32          6           0       -4.515636    2.281907   -2.386947
     33          1           0       -3.806446    2.701680   -0.404466
     34          6           0       -3.218047    0.732791   -3.695139
     35          1           0       -1.465117   -0.087093   -2.742736
     36          6           0       -4.332681    1.579485   -3.591525
     37          1           0       -5.386237    2.934510   -2.270239
     38          1           0       -3.058210    0.157360   -4.611724
     39          6           0        2.518696    0.690907    1.666982
     40          6           0        3.425225    1.752669    1.803754
     41          6           0        1.812587    0.251359    2.796838
     42          6           0        3.633052    2.340536    3.052628
     43          1           0        3.967969    2.140288    0.941229
     44          6           0        2.031915    0.842573    4.044667
     45          1           0        1.086131   -0.561475    2.708148
     46          6           0        2.951796    1.890974    4.198432
     47          1           0        4.346137    3.165608    3.139375
     48          1           0        1.477946    0.476266    4.913356
     49          6           0        2.886237    0.622492   -1.543512
     50          6           0        4.171851    1.183712   -1.602542
     51          6           0        2.097023    0.613229   -2.703838
     52          6           0        4.638362    1.749022   -2.791800
     53          1           0        4.834826    1.163170   -0.734579
     54          6           0        2.579675    1.160805   -3.893628
     55          1           0        1.104684    0.157039   -2.683875
     56          6           0        3.856209    1.743881   -3.959378
     57          1           0        5.641353    2.188158   -2.815984
     58          1           0        1.952402    1.128883   -4.789525
     59          6           0        3.566628   -1.743689    0.177892
     60          6           0        3.982148   -2.418707   -0.979655
     61          6           0        4.127491   -2.098169    1.411866
     62          6           0        4.956529   -3.414787   -0.901088
     63          1           0        3.552507   -2.169925   -1.952684
     64          6           0        5.101887   -3.097803    1.479251
     65          1           0        3.817592   -1.595645    2.329994
     66          6           0        5.540342   -3.769050    0.326877
     67          1           0        5.268603   -3.928881   -1.814626
     68          1           0        5.531876   -3.356813    2.451068
     69          6           0       -4.111361    2.451001    5.379195
     70          1           0       -3.779936    3.411696    5.806328
     71          1           0       -5.197475    2.537023    5.198535
     72          1           0       -3.960719    1.664745    6.133373
     73          6           0       -5.306052    1.743671   -4.731307
     74          1           0       -6.349015    1.684973   -4.378136
     75          1           0       -5.184182    2.730533   -5.212463
     76          1           0       -5.159952    0.973778   -5.503843
     77          6           0        2.192267    6.391281   -0.971406
     78          1           0        1.810615    6.952943   -1.837575
     79          1           0        2.160499    7.049991   -0.090585
     80          1           0        3.254193    6.164460   -1.172155
     81          6           0        3.204551    2.522933    5.544152
     82          1           0        2.679118    1.987045    6.348010
     83          1           0        4.280455    2.528502    5.782817
     84          1           0        2.866908    3.572803    5.561427
     85          6           0        6.623459   -4.815791    0.402639
     86          1           0        6.552398   -5.532863   -0.428893
     87          1           0        7.623440   -4.349741    0.349100
     88          1           0        6.577932   -5.376324    1.349106
     89          6           0        4.381017    2.308913   -5.255823
     90          1           0        5.296191    2.898709   -5.101490
     91          1           0        4.622187    1.499554   -5.966401
     92          1           0        3.632532    2.952000   -5.745523
 ---------------------------------------------------------------------
 Rotational constants (GHZ):      0.0454216      0.0361024      0.0325178
 Leave Link  202 at Thu Sep  6 04:43:44 2018, MaxMem=  2013265920 cpu:         0.0
 (Enter /scr/programs/g09/l301.exe)
 General basis read from cards:  (5D, 7F)
 Centers:      13     15     17     18     23     25     27     28     33     35
 Centers:      37     38     43     45     47     48     53     55     57     58
 Centers:      63     65     67     68     70     71     72     74     75     76
 Centers:      78     79     80     82     83     84     86     87     88     90
 Centers:      91     92
 S 5 1.00
     Exponent=  2.8295215633D+02 Coefficients=  4.3000000000D-04
     Exponent=  8.7062201949D+01 Coefficients=  5.1000000000D-04
     Exponent=  2.6788369830D+01 Coefficients=  6.1600000000D-03
     Exponent=  8.2425753324D+00 Coefficients=  1.3030000000D-02
     Exponent=  2.5361770254D+00 Coefficients=  9.9490000000D-02
 S 1 1.00
     Exponent=  7.8036216165D-01 Coefficients=  1.0000000000D+00
 S 1 1.00
     Exponent=  2.4011143435D-01 Coefficients=  1.0000000000D+00
 P 1 1.00
     Exponent=  8.8150000000D-01 Coefficients=  1.0000000000D+00
 P 1 1.00
     Exponent=  1.7989200000D-01 Coefficients=  1.0000000000D+00
 ****
 Centers:       9     10     11     12     14     16     19     20     21     22
 Centers:      24     26     29     30     31     32     34     36     39     40
 Centers:      41     42     44     46     49     50     51     52     54     56
 Centers:      59     60     61     62     64     66     69     73     77     81
 Centers:      85     89
 S 6 1.00
     Exponent=  8.8461235339D+03 Coefficients=  5.3000000000D-04
     Exponent=  2.9487078446D+03 Coefficients=  7.7000000000D-04
     Exponent=  9.8290261488D+02 Coefficients=  4.0500000000D-03
     Exponent=  3.2763420496D+02 Coefficients=  1.4030000000D-02
     Exponent=  1.0921140165D+02 Coefficients=  5.3450000000D-02
     Exponent=  3.6403800551D+01 Coefficients=  1.7027000000D-01
 S 1 1.00
     Exponent=  1.2134600184D+01 Coefficients=  1.0000000000D+00
 S 1 1.00
     Exponent=  4.0448667279D+00 Coefficients=  1.0000000000D+00
 S 1 1.00
     Exponent=  1.3482889093D+00 Coefficients=  1.0000000000D+00
 S 1 1.00
     Exponent=  4.4942963643D-01 Coefficients=  1.0000000000D+00
 S 1 1.00
     Exponent=  1.4980987881D-01 Coefficients=  1.0000000000D+00
 P 4 1.00
     Exponent=  3.7294093393D+01 Coefficients=  3.9600000000D-03
     Exponent=  1.1475105659D+01 Coefficients=  1.8890000000D-02
     Exponent=  3.5308017414D+00 Coefficients=  9.4610000000D-02
     Exponent=  1.0864005358D+00 Coefficients=  3.1889000000D-01
 P 1 1.00
     Exponent=  3.3427708794D-01 Coefficients=  1.0000000000D+00
 P 1 1.00
     Exponent=  1.0285448860D-01 Coefficients=  1.0000000000D+00
 D 1 1.00
     Exponent=  4.7750000000D-01 Coefficients=  1.0000000000D+00
 D 1 1.00
     Exponent=  1.1998000000D-01 Coefficients=  1.0000000000D+00
 ****
 Centers:       3      4      5      6
 S 7 1.00
     Exponent=  7.7142817164D+04 Coefficients=  1.0600000000D-03
     Exponent=  2.8051933514D+04 Coefficients=  6.4000000000D-04
     Exponent=  1.0200703096D+04 Coefficients=  3.9600000000D-03
     Exponent=  3.7093465804D+03 Coefficients=  9.8300000000D-03
     Exponent=  1.3488533020D+03 Coefficients=  3.2690000000D-02
     Exponent=  4.9049210981D+02 Coefficients=  9.9520000000D-02
     Exponent=  1.7836076720D+02 Coefficients=  2.6555000000D-01
 S 1 1.00
     Exponent=  6.4858460801D+01 Coefficients=  1.0000000000D+00
 S 1 1.00
     Exponent=  2.3584894837D+01 Coefficients=  1.0000000000D+00
 S 1 1.00
     Exponent=  8.5763253951D+00 Coefficients=  1.0000000000D+00
 S 1 1.00
     Exponent=  3.1186637801D+00 Coefficients=  1.0000000000D+00
 S 1 1.00
     Exponent=  1.1340595564D+00 Coefficients=  1.0000000000D+00
 S 1 1.00
     Exponent=  4.1238529323D-01 Coefficients=  1.0000000000D+00
 S 1 1.00
     Exponent=  1.4995828845D-01 Coefficients=  1.0000000000D+00
 S 1 1.00
     Exponent=  5.4530286708D-02 Coefficients=  1.0000000000D+00
 P 5 1.00
     Exponent=  6.9498536057D+02 Coefficients=  2.0000000000D-03
     Exponent=  2.3166178686D+02 Coefficients=  8.9500000000D-03
     Exponent=  7.7220595619D+01 Coefficients=  5.1130000000D-02
     Exponent=  2.5740198540D+01 Coefficients=  2.1011000000D-01
     Exponent=  8.5800661799D+00 Coefficients=  4.9738000000D-01
 P 1 1.00
     Exponent=  2.8600220600D+00 Coefficients=  1.0000000000D+00
 P 1 1.00
     Exponent=  9.5334068665D-01 Coefficients=  1.0000000000D+00
 P 1 1.00
     Exponent=  3.1778022888D-01 Coefficients=  1.0000000000D+00
 P 1 1.00
     Exponent=  1.0592674296D-01 Coefficients=  1.0000000000D+00
 P 1 1.00
     Exponent=  3.5308914320D-02 Coefficients=  1.0000000000D+00
 D 1 1.00
     Exponent=  5.5696000000D-01 Coefficients=  1.0000000000D+00
 D 1 1.00
     Exponent=  1.5619100000D-01 Coefficients=  1.0000000000D+00
 ****
 Centers:       7      8
 S 7 1.00
     Exponent=  3.0782645635D+05 Coefficients=  2.2400000000D-03
     Exponent=  1.2313058254D+05 Coefficients=  1.3000000000D-04
     Exponent=  4.9252233016D+04 Coefficients=  5.5100000000D-03
     Exponent=  1.9700893206D+04 Coefficients=  7.9300000000D-03
     Exponent=  7.8803572826D+03 Coefficients=  2.3410000000D-02
     Exponent=  3.1521429130D+03 Coefficients=  5.6580000000D-02
     Exponent=  1.2608571652D+03 Coefficients=  1.4418000000D-01
 S 1 1.00
     Exponent=  5.0434286609D+02 Coefficients=  1.0000000000D+00
 S 1 1.00
     Exponent=  2.0173714643D+02 Coefficients=  1.0000000000D+00
 S 1 1.00
     Exponent=  8.0694858574D+01 Coefficients=  1.0000000000D+00
 S 1 1.00
     Exponent=  3.2277943429D+01 Coefficients=  1.0000000000D+00
 S 1 1.00
     Exponent=  1.2911177372D+01 Coefficients=  1.0000000000D+00
 S 1 1.00
     Exponent=  5.1644709487D+00 Coefficients=  1.0000000000D+00
 S 1 1.00
     Exponent=  2.0657883795D+00 Coefficients=  1.0000000000D+00
 S 1 1.00
     Exponent=  8.2631535179D-01 Coefficients=  1.0000000000D+00
 S 1 1.00
     Exponent=  3.3052614072D-01 Coefficients=  1.0000000000D+00
 S 1 1.00
     Exponent=  1.3221045629D-01 Coefficients=  1.0000000000D+00
 S 1 1.00
     Exponent=  5.2884182515D-02 Coefficients=  1.0000000000D+00
 P 5 1.00
     Exponent=  3.7107657199D+03 Coefficients=  2.0300000000D-03
     Exponent=  1.3493693527D+03 Coefficients=  5.5800000000D-03
     Exponent=  4.9067976461D+02 Coefficients=  3.0440000000D-02
     Exponent=  1.7842900531D+02 Coefficients=  1.2317000000D-01
     Exponent=  6.4883274660D+01 Coefficients=  3.7966000000D-01
 P 1 1.00
     Exponent=  2.3593918058D+01 Coefficients=  1.0000000000D+00
 P 1 1.00
     Exponent=  8.5796065666D+00 Coefficients=  1.0000000000D+00
 P 1 1.00
     Exponent=  3.1198569333D+00 Coefficients=  1.0000000000D+00
 P 1 1.00
     Exponent=  1.1344934303D+00 Coefficients=  1.0000000000D+00
 P 1 1.00
     Exponent=  4.1254306556D-01 Coefficients=  1.0000000000D+00
 P 1 1.00
     Exponent=  1.5001566020D-01 Coefficients=  1.0000000000D+00
 P 1 1.00
     Exponent=  5.4551149165D-02 Coefficients=  1.0000000000D+00
 P 1 1.00
     Exponent=  1.9836781515D-02 Coefficients=  1.0000000000D+00
 D 4 1.00
     Exponent=  1.2073850248D+02 Coefficients=  8.2200000000D-03
     Exponent=  4.0246167494D+01 Coefficients=  4.8990000000D-02
     Exponent=  1.3415389165D+01 Coefficients=  2.0377000000D-01
     Exponent=  4.4717963882D+00 Coefficients=  3.7159000000D-01
 D 1 1.00
     Exponent=  1.4905987961D+00 Coefficients=  1.0000000000D+00
 D 1 1.00
     Exponent=  4.9686626535D-01 Coefficients=  1.0000000000D+00
 F 1 1.00
     Exponent=  1.2030000000D+00 Coefficients=  1.0000000000D+00
 F 1 1.00
     Exponent=  5.2800000000D-01 Coefficients=  1.0000000000D+00
 ****
 Centers:       2
 S 8 1.00
     Exponent=  7.5448214551D+05 Coefficients=  4.4300000000D-03
     Exponent=  3.3532539800D+05 Coefficients=  1.9800000000D-03
     Exponent=  1.4903351022D+05 Coefficients=  9.0500000000D-03
     Exponent=  6.6237115655D+04 Coefficients=  4.8700000000D-03
     Exponent=  2.9438718069D+04 Coefficients=  2.0770000000D-02
     Exponent=  1.3083874697D+04 Coefficients=  3.2900000000D-02
     Exponent=  5.8150554210D+03 Coefficients=  7.7010000000D-02
     Exponent=  2.5844690760D+03 Coefficients=  1.5160000000D-01
 S 1 1.00
     Exponent=  1.1486529227D+03 Coefficients=  1.0000000000D+00
 S 1 1.00
     Exponent=  5.1051241008D+02 Coefficients=  1.0000000000D+00
 S 1 1.00
     Exponent=  2.2689440448D+02 Coefficients=  1.0000000000D+00
 S 1 1.00
     Exponent=  1.0084195755D+02 Coefficients=  1.0000000000D+00
 S 1 1.00
     Exponent=  4.4818647798D+01 Coefficients=  1.0000000000D+00
 S 1 1.00
     Exponent=  1.9919399021D+01 Coefficients=  1.0000000000D+00
 S 1 1.00
     Exponent=  8.8530662317D+00 Coefficients=  1.0000000000D+00
 S 1 1.00
     Exponent=  3.9346961030D+00 Coefficients=  1.0000000000D+00
 S 1 1.00
     Exponent=  1.7487538235D+00 Coefficients=  1.0000000000D+00
 S 1 1.00
     Exponent=  7.7722392158D-01 Coefficients=  1.0000000000D+00
 S 1 1.00
     Exponent=  3.4543285403D-01 Coefficients=  1.0000000000D+00
 S 1 1.00
     Exponent=  1.5352571290D-01 Coefficients=  1.0000000000D+00
 S 1 1.00
     Exponent=  6.8233650180D-02 Coefficients=  1.0000000000D+00
 S 1 1.00
     Exponent=  1.3478251887D-02 Coefficients=  1.0000000000D+00
 P 5 1.00
     Exponent=  1.0090658304D+04 Coefficients=  2.7500000000D-03
     Exponent=  4.0362633217D+03 Coefficients=  4.1800000000D-03
     Exponent=  1.6145053287D+03 Coefficients=  2.0890000000D-02
     Exponent=  6.4580213147D+02 Coefficients=  7.1370000000D-02
     Exponent=  2.5832085259D+02 Coefficients=  2.2613000000D-01
 P 1 1.00
     Exponent=  1.0332834104D+02 Coefficients=  1.0000000000D+00
 P 1 1.00
     Exponent=  4.1331336414D+01 Coefficients=  1.0000000000D+00
 P 1 1.00
     Exponent=  1.6532534566D+01 Coefficients=  1.0000000000D+00
 P 1 1.00
     Exponent=  6.6130138263D+00 Coefficients=  1.0000000000D+00
 P 1 1.00
     Exponent=  2.6452055305D+00 Coefficients=  1.0000000000D+00
 P 1 1.00
     Exponent=  1.0580822122D+00 Coefficients=  1.0000000000D+00
 P 1 1.00
     Exponent=  4.2323288488D-01 Coefficients=  1.0000000000D+00
 P 1 1.00
     Exponent=  1.6929315395D-01 Coefficients=  1.0000000000D+00
 P 1 1.00
     Exponent=  6.7717261581D-02 Coefficients=  1.0000000000D+00
 P 1 1.00
     Exponent=  2.7086904632D-02 Coefficients=  1.0000000000D+00
 P 1 1.00
     Exponent=  1.0834761853D-02 Coefficients=  1.0000000000D+00
 D 4 1.00
     Exponent=  5.5430250651D+02 Coefficients=  4.3700000000D-03
     Exponent=  2.0156454782D+02 Coefficients=  2.5110000000D-02
     Exponent=  7.3296199207D+01 Coefficients=  1.3316000000D-01
     Exponent=  2.6653163348D+01 Coefficients=  3.8900000000D-01
 D 1 1.00
     Exponent=  9.6920593993D+00 Coefficients=  1.0000000000D+00
 D 1 1.00
     Exponent=  3.5243852361D+00 Coefficients=  1.0000000000D+00
 D 1 1.00
     Exponent=  1.2815946313D+00 Coefficients=  1.0000000000D+00
 D 1 1.00
     Exponent=  4.6603441139D-01 Coefficients=  1.0000000000D+00
 D 1 1.00
     Exponent=  1.6946705869D-01 Coefficients=  1.0000000000D+00
 F 1 1.00
     Exponent=  1.3140000000D+00 Coefficients=  1.0000000000D+00
 F 1 1.00
     Exponent=  1.9993000000D-01 Coefficients=  1.0000000000D+00
 ****
 Centers:       1
 S 9 1.00
     Exponent=  2.1644816090D+06 Coefficients=  1.2320000000D-02
     Exponent=  1.0822408045D+06 Coefficients=  1.2970000000D-02
     Exponent=  5.4112040224D+05 Coefficients=  2.6370000000D-02
     Exponent=  2.7056020112D+05 Coefficients=  9.0400000000D-03
     Exponent=  1.3528010056D+05 Coefficients=  3.4980000000D-02
     Exponent=  6.7640050280D+04 Coefficients=  1.2220000000D-02
     Exponent=  3.3820025140D+04 Coefficients=  6.0520000000D-02
     Exponent=  1.6910012570D+04 Coefficients=  6.4930000000D-02
     Exponent=  8.4550062850D+03 Coefficients=  1.3819000000D-01
 S 1 1.00
     Exponent=  4.2275031425D+03 Coefficients=  1.0000000000D+00
 S 1 1.00
     Exponent=  2.1137515713D+03 Coefficients=  1.0000000000D+00
 S 1 1.00
     Exponent=  1.0568757856D+03 Coefficients=  1.0000000000D+00
 S 1 1.00
     Exponent=  5.2843789281D+02 Coefficients=  1.0000000000D+00
 S 1 1.00
     Exponent=  2.6421894641D+02 Coefficients=  1.0000000000D+00
 S 1 1.00
     Exponent=  1.3210947320D+02 Coefficients=  1.0000000000D+00
 S 1 1.00
     Exponent=  6.6054736602D+01 Coefficients=  1.0000000000D+00
 S 1 1.00
     Exponent=  3.3027368301D+01 Coefficients=  1.0000000000D+00
 S 1 1.00
     Exponent=  1.6513684150D+01 Coefficients=  1.0000000000D+00
 S 1 1.00
     Exponent=  8.2568420752D+00 Coefficients=  1.0000000000D+00
 S 1 1.00
     Exponent=  4.1284210376D+00 Coefficients=  1.0000000000D+00
 S 1 1.00
     Exponent=  2.0642105188D+00 Coefficients=  1.0000000000D+00
 S 1 1.00
     Exponent=  1.0321052594D+00 Coefficients=  1.0000000000D+00
 S 1 1.00
     Exponent=  5.1605262970D-01 Coefficients=  1.0000000000D+00
 S 1 1.00
     Exponent=  2.5802631485D-01 Coefficients=  1.0000000000D+00
 S 1 1.00
     Exponent=  1.2901315743D-01 Coefficients=  1.0000000000D+00
 S 1 1.00
     Exponent=  6.4506578713D-02 Coefficients=  1.0000000000D+00
 P 7 1.00
     Exponent=  3.2357915258D+04 Coefficients=  5.0200000000D-03
     Exponent=  1.4381295670D+04 Coefficients=  2.0200000000D-03
     Exponent=  6.3916869645D+03 Coefficients=  1.8070000000D-02
     Exponent=  2.8407497620D+03 Coefficients=  3.6620000000D-02
     Exponent=  1.2625554498D+03 Coefficients=  1.1172000000D-01
     Exponent=  5.6113575545D+02 Coefficients=  2.5586000000D-01
     Exponent=  2.4939366909D+02 Coefficients=  4.2608000000D-01
 P 1 1.00
     Exponent=  1.1084163071D+02 Coefficients=  1.0000000000D+00
 P 1 1.00
     Exponent=  4.9262946981D+01 Coefficients=  1.0000000000D+00
 P 1 1.00
     Exponent=  2.1894643103D+01 Coefficients=  1.0000000000D+00
 P 1 1.00
     Exponent=  9.7309524900D+00 Coefficients=  1.0000000000D+00
 P 1 1.00
     Exponent=  4.3248677733D+00 Coefficients=  1.0000000000D+00
 P 1 1.00
     Exponent=  1.9221634548D+00 Coefficients=  1.0000000000D+00
 P 1 1.00
     Exponent=  8.5429486881D-01 Coefficients=  1.0000000000D+00
 P 1 1.00
     Exponent=  3.7968660836D-01 Coefficients=  1.0000000000D+00
 P 1 1.00
     Exponent=  1.6874960372D-01 Coefficients=  1.0000000000D+00
 P 1 1.00
     Exponent=  7.4999823874D-02 Coefficients=  1.0000000000D+00
 P 1 1.00
     Exponent=  3.3333255055D-02 Coefficients=  1.0000000000D+00
 D 5 1.00
     Exponent=  1.9119003508D+03 Coefficients=  4.3300000000D-03
     Exponent=  7.6476014031D+02 Coefficients=  1.7780000000D-02
     Exponent=  3.0590405613D+02 Coefficients=  8.9710000000D-02
     Exponent=  1.2236162245D+02 Coefficients=  3.1123000000D-01
     Exponent=  4.8944648980D+01 Coefficients=  5.3206000000D-01
 D 1 1.00
     Exponent=  1.9577859592D+01 Coefficients=  1.0000000000D+00
 D 1 1.00
     Exponent=  7.8311438368D+00 Coefficients=  1.0000000000D+00
 D 1 1.00
     Exponent=  3.1324575347D+00 Coefficients=  1.0000000000D+00
 D 1 1.00
     Exponent=  1.2529830139D+00 Coefficients=  1.0000000000D+00
 D 1 1.00
     Exponent=  5.0119320556D-01 Coefficients=  1.0000000000D+00
 D 1 1.00
     Exponent=  2.0047728222D-01 Coefficients=  1.0000000000D+00
 D 1 1.00
     Exponent=  8.0190912889D-02 Coefficients=  1.0000000000D+00
 D 1 1.00
     Exponent=  3.2076365156D-02 Coefficients=  1.0000000000D+00
 F 4 1.00
     Exponent=  8.2289680979D+01 Coefficients=  6.1870000000D-02
     Exponent=  2.9923520356D+01 Coefficients=  2.4823000000D-01
     Exponent=  1.0881280130D+01 Coefficients=  4.9956000000D-01
     Exponent=  3.9568291380D+00 Coefficients=  4.0380000000D-01
 F 1 1.00
     Exponent=  1.4388469593D+00 Coefficients=  1.0000000000D+00
 F 1 1.00
     Exponent=  5.2321707610D-01 Coefficients=  1.0000000000D+00
 G 1 1.00
     Exponent=  2.6700000000D+00 Coefficients=  1.0000000000D+00
 G 1 1.00
     Exponent=  9.0960000000D-01 Coefficients=  1.0000000000D+00
 ****
 Ernie: Thresh=  0.10000D-02 Tol=  0.10000D-05 Strict=F.
 There are  2097 symmetry adapted cartesian basis functions of A   symmetry.
 There are  1945 symmetry adapted basis functions of A   symmetry.
  1945 basis functions,  3114 primitive gaussians,  2097 cartesian basis functions
   278 alpha electrons      278 beta electrons
       nuclear repulsion energy     16302.7857764597 Hartrees.
 IExCor= 1009 DFT=T Ex=PBE Corr=PBE ExCW=0 ScaHFX=  0.000000
 ScaDFX=  1.000000  1.000000  1.000000  1.000000 ScalE2=  1.000000  1.000000
 IRadAn=      0 IRanWt=     -1 IRanGd=            0 ICorTp=0 IEmpDi=  4
 NAtoms=   92 NActive=   92 NUniq=   92 SFac= 1.00D+00 NAtFMM=   60 NAOKFM=T Big=T
 Integral buffers will be    131072 words long.
 Raffenetti 2 integral format.
 Two-electron integral symmetry is turned on.
 ------------------------------------------------------------------------------
 Polarizable Continuum Model (PCM)
 =================================
 Model                : PCM (using non-symmetric T matrix).
 Atomic radii         : UFF (Universal Force Field).
 Polarization charges : Total charges.
 Charge compensation  : None.
 Solution method      : On-the-fly selection.
 Cavity type          : Scaled VdW (van der Waals Surface) (Alpha=1.100).
 Cavity algorithm     : GePol (No added spheres)
                        Default sphere list used, NSphG=   92.
                        Lebedev-Laikov grids with approx.  5.0 points / Ang**2.
                        Smoothing algorithm: Karplus/York (Gamma=1.0000).
                        Polarization charges: spherical gaussians, with
                                              point-specific exponents (IZeta= 3).
                        Self-potential: point-specific (ISelfS= 7).
                        Self-field    : sphere-specific E.n sum rule (ISelfD= 2).
 Solvent              : Chloroform, Eps=   4.711300 Eps(inf)=   2.090627
 ------------------------------------------------------------------------------
 GePol: Number of generator spheres                  =      92
 GePol: Total number of spheres                      =      92
 GePol: Number of exposed spheres                    =      92 (100.00%)
 GePol: Number of points                             =    6815
 GePol: Average weight of points                     =       0.13
 GePol: Minimum weight of points                     =   0.71D-11
 GePol: Maximum weight of points                     =    0.21838
 GePol: Number of points with low weight             =     512
 GePol: Fraction of low-weight points (<1% of avg)   =       7.51%
 GePol: Cavity surface area                          =    904.036 Ang**2
 GePol: Cavity volume                                =   1084.465 Ang**3
 Leave Link  301 at Thu Sep  6 04:43:44 2018, MaxMem=  2013265920 cpu:         1.7
 (Enter /scr/programs/g09/l302.exe)
 NPDir=0 NMtPBC=     1 NCelOv=     1 NCel=       1 NClECP=     1 NCelD=      1
         NCelK=      1 NCelE2=     1 NClLst=     1 CellRange=     0.0.
 One-electron integrals computed using PRISM.
 NBasis=  1945 RedAO= T EigKep=  1.41D-06  NBF=  1945
 NBsUse=  1945 1.00D-06 EigRej= -1.00D+00 NBFU=  1945
 Precomputing XC quadrature grid using
 IXCGrd= 4 IRadAn=           0 IRanWt=          -1 IRanGd=           0 AccXCQ= 0.00D+00.
 Defaulting to unpruned grid for atomic number  78.
 Generated NRdTot=       0 NPtTot=           0 NUsed=           0 NTot=          32
 NSgBfM=  1727  1727  1727  1730  1733 MxSgAt=    92 MxSgA2=    92.
 Leave Link  302 at Thu Sep  6 04:44:08 2018, MaxMem=  2013265920 cpu:       189.3
 (Enter /scr/programs/g09/l308.exe)
 Leave Link  308 at Thu Sep  6 04:44:10 2018, MaxMem=  2013265920 cpu:        14.0
 (Enter /scr/programs/g09/l303.exe)
 DipDrv:  MaxL=1.
 Leave Link  303 at Thu Sep  6 04:44:11 2018, MaxMem=  2013265920 cpu:         8.1
 (Enter /scr/programs/g09/l401.exe)
 ExpMin= 1.08D-02 ExpMax= 2.16D+06 ExpMxC= 2.16D+06 IAcc=4 IRadAn=    199590 AccDes= 0.00D+00
 Harris functional with IExCor= 1009 and IRadAn=  199590 diagonalized for initial guess.
 HarFok:  IExCor= 1009 AccDes= 0.00D+00 IRadAn=    199590 IDoV= 1 UseB2=F ITyADJ=14
 ICtDFT=  3500011 ScaDFX=  1.000000  1.000000  1.000000  1.000000
 FoFCou: FMM=F IPFlag=           0 FMFlag=      100000 FMFlg1=        2001
         NFxFlg=           0 DoJE=T BraDBF=F KetDBF=T FulRan=T
         wScrn=  0.000000 ICntrl=     500 IOpCl=  0 I1Cent=   200000004 NGrid=           0
         NMat0=    1 NMatS0=      1 NMatT0=    0 NMatD0=    1 NMtDS0=    0 NMtDT0=    0
 Petite list used in FoFCou.
 Harris En= -31032.0266129445    
 JPrj=0 DoOrth=F DoCkMO=F.
 Leave Link  401 at Thu Sep  6 04:49:38 2018, MaxMem=  2013265920 cpu:      2611.0
 (Enter /scr/programs/g09/l502.exe)
 Closed shell SCF:
 Using DIIS extrapolation, IDIIS=  1040.
 Integral symmetry usage will be decided dynamically.
 IVT=    14231111 IEndB=    14231111 NGot=  2013265920 MDV=  2004436316
 LenX=  2004436316 LenY=  2000036810
 Requested convergence on RMS density matrix=1.00D-04 within1000 cycles.
 Requested convergence on MAX density matrix=1.00D-02.
 Requested convergence on             energy=1.00D-02.
 No special actions if energy rises.
 Fock matrices will be formed incrementally for  20 cycles.

 Cycle   1  Pass 1  IDiag  1:
 FoFJK:  IHMeth= 1 ICntrl=     500 DoSepK=F KAlg= 0 I1Cent=   0 FoldK=F
 IRaf= 590000000 NMat=   1 IRICut=       1 DoRegI=T DoRafI=F ISym2E= 0.
 FoFCou: FMM=T IPFlag=           0 FMFlag=      100000 FMFlg1=        2001
         NFxFlg=           0 DoJE=T BraDBF=F KetDBF=F FulRan=T
         wScrn=  0.000000 ICntrl=     500 IOpCl=  0 I1Cent=           0 NGrid=           0
         NMat0=    1 NMatS0=      1 NMatT0=    0 NMatD0=    1 NMtDS0=    0 NMtDT0=    0
 Symmetry not used in FoFCou.
 FMM levels:  10  Number of levels for PrismC:   9
 Defaulting to unpruned grid for atomic number  78.
 Defaulting to unpruned grid for atomic number  78.
 Defaulting to unpruned grid for atomic number  78.
 Defaulting to unpruned grid for atomic number  78.
 Defaulting to unpruned grid for atomic number  78.
 Defaulting to unpruned grid for atomic number  78.
 Defaulting to unpruned grid for atomic number  78.
 Defaulting to unpruned grid for atomic number  78.
 Inv3:  Mode=1 IEnd=   139332675.
 Iteration    1 A*A^-1 deviation from unit magnitude is 1.19D-14 for   5145.
 Iteration    1 A*A^-1 deviation from orthogonality  is 8.94D-15 for   4291   1720.
 Iteration    1 A^-1*A deviation from unit magnitude is 1.27D-14 for   5145.
 Iteration    1 A^-1*A deviation from orthogonality  is 1.19D-10 for   5735   5686.
 Iteration    2 A*A^-1 deviation from unit magnitude is 1.38D-14 for   3605.
 Iteration    2 A*A^-1 deviation from orthogonality  is 1.49D-14 for   5434    525.
 Iteration    2 A^-1*A deviation from unit magnitude is 1.78D-15 for   5979.
 Iteration    2 A^-1*A deviation from orthogonality  is 9.14D-16 for   2717    659.
 E= -31004.6577525642    
 DIIS: error= 1.45D-01 at cycle   1 NSaved=   1.
 NSaved= 1 IEnMin= 1 EnMin= -31004.6577525642     IErMin= 1 ErrMin= 1.45D-01
 ErrMax= 1.45D-01  0.00D+00 EMaxC= 1.00D-01 BMatC= 3.47D+02 BMatP= 3.47D+02
 IDIUse=3 WtCom= 0.00D+00 WtEn= 1.00D+00
 Coeff-Com:  0.100D+01
 Coeff-En:   0.100D+01
 Coeff:      0.100D+01
 Gap=    -0.030 Goal=   None    Shift=    0.000
 GapD=   -0.030 DampG=0.250 DampE=0.125 DampFc=0.1250 IDamp=-1.
 Damping current iteration by 1.25D-01
 RMSDP=2.49D-01 MaxDP=5.47D+01              OVMax= 9.56D-01

 Cycle   2  Pass 1  IDiag  1:
 RMSU=  2.78D-02    CP:  1.90D+00
 E= -31006.3048930682     Delta-E=       -1.647140504021 Rises=F Damp=T
 DIIS: error= 1.24D-01 at cycle   2 NSaved=   2.
 NSaved= 2 IEnMin= 2 EnMin= -31006.3048930682     IErMin= 2 ErrMin= 1.24D-01
 ErrMax= 1.24D-01  0.00D+00 EMaxC= 1.00D-01 BMatC= 2.40D+02 BMatP= 3.47D+02
 IDIUse=3 WtCom= 0.00D+00 WtEn= 1.00D+00
 Coeff-Com: -0.324D+01 0.424D+01
 Coeff-En:   0.356D+00 0.644D+00
 Coeff:      0.356D+00 0.644D+00
 Gap=     0.034 Goal=   None    Shift=    0.000
 RMSDP=2.16D-02 MaxDP=6.15D+00 DE=-1.65D+00 OVMax= 9.50D-01

 Cycle   3  Pass 1  IDiag  1:
 RMSU=  1.30D-02    CP:  1.86D+00  3.82D-01
 E= -30997.0240710276     Delta-E=        9.280822040586 Rises=F Damp=F
 DIIS: error= 1.11D-01 at cycle   3 NSaved=   3.
 NSaved= 3 IEnMin= 2 EnMin= -31006.3048930682     IErMin= 3 ErrMin= 1.11D-01
 ErrMax= 1.11D-01  0.00D+00 EMaxC= 1.00D-01 BMatC= 5.34D+01 BMatP= 2.40D+02
 IDIUse=3 WtCom= 0.00D+00 WtEn= 1.00D+00
 EnCoef did   100 forward-backward iterations
 Coeff-Com:  0.256D+00-0.335D-01 0.777D+00
 Coeff-En:   0.577D+00 0.972D-02 0.413D+00
 Coeff:      0.577D+00 0.972D-02 0.413D+00
 Gap=    -0.050 Goal=   None    Shift=    0.000
 RMSDP=1.84D-02 MaxDP=2.71D+00 DE= 9.28D+00 OVMax= 9.14D-01

 Cycle   4  Pass 1  IDiag  1:
 RMSU=  3.78D-03    CP:  1.16D+00  2.53D-02  2.12D-01
 E= -31016.4275823128     Delta-E=      -19.403511285156 Rises=F Damp=F
 DIIS: error= 2.19D-02 at cycle   4 NSaved=   4.
 NSaved= 4 IEnMin= 4 EnMin= -31016.4275823128     IErMin= 4 ErrMin= 2.19D-02
 ErrMax= 2.19D-02  0.00D+00 EMaxC= 1.00D-01 BMatC= 3.09D+00 BMatP= 5.34D+01
 IDIUse=3 WtCom= 7.81D-01 WtEn= 2.19D-01
 Coeff-Com:  0.140D+00-0.103D+00-0.764D-01 0.104D+01
 Coeff-En:   0.506D-01 0.000D+00 0.000D+00 0.949D+00
 Coeff:      0.121D+00-0.805D-01-0.597D-01 0.102D+01
 Gap=     0.138 Goal=   None    Shift=    0.000
 RMSDP=8.05D-03 MaxDP=9.70D-01 DE=-1.94D+01 OVMax= 8.44D-01

 Cycle   5  Pass 1  IDiag  1:
 RMSU=  5.96D-03    CP:  1.31D+00  1.11D-01  3.59D-01  7.44D-03
 E= -31010.2230736522     Delta-E=        6.204508660565 Rises=F Damp=F
 DIIS: error= 2.25D-02 at cycle   5 NSaved=   5.
 NSaved= 5 IEnMin= 4 EnMin= -31016.4275823128     IErMin= 4 ErrMin= 2.19D-02
 ErrMax= 2.25D-02  0.00D+00 EMaxC= 1.00D-01 BMatC= 5.37D+00 BMatP= 3.09D+00
 IDIUse=2 WtCom= 0.00D+00 WtEn= 1.00D+00
 EnCoef did     3 forward-backward iterations
 Coeff-En:   0.170D-01 0.000D+00 0.000D+00 0.850D+00 0.133D+00
 Coeff:      0.170D-01 0.000D+00 0.000D+00 0.850D+00 0.133D+00
 Gap=    -0.028 Goal=   None    Shift=    0.000
 RMSDP=7.97D-03 MaxDP=1.02D+00 DE= 6.20D+00 OVMax= 9.77D-01

 Cycle   6  Pass 1  IDiag  1:
 RMSU=  2.87D-03    CP:  1.07D+00  1.47D-02  1.46D-01  3.52D-01  1.54D-01
 E= -30999.2624261432     Delta-E=       10.960647509070 Rises=F Damp=F
 DIIS: error= 6.85D-02 at cycle   6 NSaved=   6.
 NSaved= 6 IEnMin= 4 EnMin= -31016.4275823128     IErMin= 4 ErrMin= 2.19D-02
 ErrMax= 6.85D-02  0.00D+00 EMaxC= 1.00D-01 BMatC= 1.15D+01 BMatP= 3.09D+00
 IDIUse=2 WtCom= 0.00D+00 WtEn= 1.00D+00
 EnCoef did     3 forward-backward iterations
 Coeff-En:   0.000D+00 0.000D+00 0.000D+00 0.832D+00 0.900D-01 0.780D-01
 Coeff:      0.000D+00 0.000D+00 0.000D+00 0.832D+00 0.900D-01 0.780D-01
 Gap=    -0.021 Goal=   None    Shift=    0.000
 RMSDP=3.96D-03 MaxDP=2.84D-01 DE= 1.10D+01 OVMax= 9.82D-01

 Cycle   7  Pass 1  IDiag  1:
 RMSU=  1.96D-03    CP:  1.14D+00  5.10D-02  1.97D-01  3.19D-01  2.72D-01
                    CP: -3.87D-02
 E= -31016.3619399502     Delta-E=      -17.099513807036 Rises=F Damp=F
 DIIS: error= 2.80D-02 at cycle   7 NSaved=   7.
 NSaved= 7 IEnMin= 4 EnMin= -31016.4275823128     IErMin= 4 ErrMin= 2.19D-02
 ErrMax= 2.80D-02  0.00D+00 EMaxC= 1.00D-01 BMatC= 2.08D+00 BMatP= 3.09D+00
 IDIUse=3 WtCom= 7.20D-01 WtEn= 2.80D-01
 Coeff-Com: -0.539D-01 0.819D-01-0.189D-01 0.504D+00 0.346D-01 0.117D-01
 Coeff-Com:  0.441D+00
 Coeff-En:   0.000D+00 0.000D+00 0.000D+00 0.512D+00 0.000D+00 0.000D+00
 Coeff-En:   0.488D+00
 Coeff:     -0.388D-01 0.590D-01-0.136D-01 0.506D+00 0.249D-01 0.839D-02
 Coeff:      0.454D+00
 Gap=     0.146 Goal=   None    Shift=    0.000
 RMSDP=2.04D-03 MaxDP=1.80D-01 DE=-1.71D+01 OVMax= 1.59D-01

 Cycle   8  Pass 1  IDiag  1:
 RMSU=  1.17D-03    CP:  1.11D+00  2.84D-02  1.93D-01  4.66D-01  1.57D-01
                    CP:  9.47D-02  4.20D-01
 E= -31017.3113824833     Delta-E=       -0.949442533114 Rises=F Damp=F
 DIIS: error= 4.60D-03 at cycle   8 NSaved=   8.
 NSaved= 8 IEnMin= 8 EnMin= -31017.3113824833     IErMin= 8 ErrMin= 4.60D-03
 ErrMax= 4.60D-03  0.00D+00 EMaxC= 1.00D-01 BMatC= 9.51D-02 BMatP= 2.08D+00
 IDIUse=3 WtCom= 9.54D-01 WtEn= 4.60D-02
 Coeff-Com: -0.229D-01 0.315D-01-0.703D-02 0.182D+00-0.913D-02-0.308D-02
 Coeff-Com:  0.272D+00 0.556D+00
 Coeff-En:   0.000D+00 0.000D+00 0.000D+00 0.000D+00 0.000D+00 0.000D+00
 Coeff-En:   0.536D-01 0.946D+00
 Coeff:     -0.219D-01 0.301D-01-0.670D-02 0.174D+00-0.871D-02-0.293D-02
 Coeff:      0.262D+00 0.574D+00
 Gap=     0.095 Goal=   None    Shift=    0.000
 RMSDP=7.54D-04 MaxDP=9.81D-02 DE=-9.49D-01 OVMax= 1.27D-01

 Cycle   9  Pass 1  IDiag  1:
 RMSU=  5.33D-04    CP:  1.12D+00  2.87D-02  1.97D-01  5.50D-01  1.27D-01
                    CP:  7.64D-02  4.50D-01  6.94D-01
 E= -31017.3500258134     Delta-E=       -0.038643330132 Rises=F Damp=F
 DIIS: error= 1.37D-03 at cycle   9 NSaved=   9.
 NSaved= 9 IEnMin= 9 EnMin= -31017.3500258134     IErMin= 9 ErrMin= 1.37D-03
 ErrMax= 1.37D-03  0.00D+00 EMaxC= 1.00D-01 BMatC= 3.76D-02 BMatP= 9.51D-02
 IDIUse=3 WtCom= 9.86D-01 WtEn= 1.37D-02
 Coeff-Com: -0.112D-01 0.138D-01-0.331D-02 0.491D-01-0.565D-02-0.140D-02
 Coeff-Com:  0.887D-01 0.414D+00 0.456D+00
 Coeff-En:   0.000D+00 0.000D+00 0.000D+00 0.000D+00 0.000D+00 0.000D+00
 Coeff-En:   0.000D+00 0.370D+00 0.630D+00
 Coeff:     -0.110D-01 0.136D-01-0.327D-02 0.484D-01-0.557D-02-0.138D-02
 Coeff:      0.875D-01 0.413D+00 0.459D+00
 Gap=     0.098 Goal=   None    Shift=    0.000
 RMSDP=4.36D-04 MaxDP=5.00D-02 DE=-3.86D-02 OVMax= 8.69D-02

 Cycle  10  Pass 1  IDiag  1:
 RMSU=  2.30D-04    CP:  1.12D+00  3.33D-02  1.99D-01  5.27D-01  1.37D-01
                    CP:  5.78D-02  5.01D-01  6.75D-01  4.21D-01
 E= -31017.3821369709     Delta-E=       -0.032111157445 Rises=F Damp=F
 DIIS: error= 5.79D-04 at cycle  10 NSaved=  10.
 NSaved=10 IEnMin=10 EnMin= -31017.3821369709     IErMin=10 ErrMin= 5.79D-04
 ErrMax= 5.79D-04  0.00D+00 EMaxC= 1.00D-01 BMatC= 4.97D-03 BMatP= 3.76D-02
 IDIUse=3 WtCom= 9.94D-01 WtEn= 5.79D-03
 Coeff-Com: -0.240D-02 0.278D-02-0.148D-02 0.136D-01-0.177D-03 0.758D-04
 Coeff-Com:  0.238D-01 0.219D+00 0.323D+00 0.421D+00
 Coeff-En:   0.000D+00 0.000D+00 0.000D+00 0.000D+00 0.000D+00 0.000D+00
 Coeff-En:   0.000D+00 0.000D+00 0.131D+00 0.869D+00
 Coeff:     -0.239D-02 0.276D-02-0.147D-02 0.135D-01-0.176D-03 0.754D-04
 Coeff:      0.237D-01 0.218D+00 0.322D+00 0.424D+00
 Gap=     0.090 Goal=   None    Shift=    0.000
 RMSDP=2.14D-04 MaxDP=1.91D-02 DE=-3.21D-02 OVMax= 2.31D-02

 Cycle  11  Pass 1  IDiag  1:
 RMSU=  1.12D-04    CP:  1.11D+00  3.07D-02  1.96D-01  5.28D-01  1.33D-01
                    CP:  6.90D-02  4.58D-01  7.18D-01  5.34D-01  6.23D-01
 E= -31017.3864123983     Delta-E=       -0.004275427375 Rises=F Damp=F
 DIIS: error= 3.11D-04 at cycle  11 NSaved=  11.
 NSaved=11 IEnMin=11 EnMin= -31017.3864123983     IErMin=11 ErrMin= 3.11D-04
 ErrMax= 3.11D-04  0.00D+00 EMaxC= 1.00D-01 BMatC= 1.00D-03 BMatP= 4.97D-03
 IDIUse=3 WtCom= 9.97D-01 WtEn= 3.11D-03
 Coeff-Com: -0.187D-03 0.132D-03-0.760D-03 0.684D-02 0.102D-04 0.495D-03
 Coeff-Com:  0.133D-01 0.115D+00 0.181D+00 0.305D+00 0.379D+00
 Coeff-En:   0.000D+00 0.000D+00 0.000D+00 0.000D+00 0.000D+00 0.000D+00
 Coeff-En:   0.000D+00 0.000D+00 0.000D+00 0.141D+00 0.859D+00
 Coeff:     -0.186D-03 0.132D-03-0.758D-03 0.682D-02 0.101D-04 0.493D-03
 Coeff:      0.133D-01 0.115D+00 0.180D+00 0.305D+00 0.380D+00
 Gap=     0.091 Goal=   None    Shift=    0.000
 RMSDP=8.38D-05 MaxDP=7.77D-03 DE=-4.28D-03 OVMax= 5.83D-03

 Error on total polarization charges =  0.02415
 SCF Done:  E(RPBE-PBE) =  -31017.3864124     A.U. after   11 cycles
            NFock= 11  Conv=0.84D-04     -V/T= 2.0138
 KE= 3.059382763091D+04 PE=-1.060662168570D+05 EE= 2.815221703727D+04
 Leave Link  502 at Thu Sep  6 06:27:19 2018, MaxMem=  2013265920 cpu:     46789.1
 (Enter /scr/programs/g09/l801.exe)
 Range of M.O.s used for correlation:     1  1945
 NBasis=  1945 NAE=   278 NBE=   278 NFC=     0 NFV=     0
 NROrb=   1945 NOA=   278 NOB=   278 NVA=  1667 NVB=  1667

 **** Warning!!: The largest alpha MO coefficient is  0.70300427D+02


 **** Warning!!: The smallest alpha delta epsilon is  0.90997264D-01

 Leave Link  801 at Thu Sep  6 06:27:19 2018, MaxMem=  2013265920 cpu:         1.3
 (Enter /scr/programs/g09/l1002.exe)
 Minotr:  Closed shell wavefunction.
 NEqPCM:  Using equilibrium solvation (IEInf=0, Eps=   4.7113, EpsInf=   2.0906)
          Direct CPHF calculation.
          Differentiating once with respect to magnetic field using GIAOs.
          Electric field/nuclear overlap derivatives assumed to be zero.
          Requested convergence is 1.0D-08 RMS, and 1.0D-07 maximum.
          Secondary convergence is 1.0D-12 RMS, and 1.0D-12 maximum.
          NewPWx=T KeepS1=F KeepF1=F KeepIn=T MapXYZ=F SortEE=F KeepMc=T.
          MDV=    2013263235 using IRadAn=       2.
 Defaulting to unpruned grid for atomic number  78.
 Generate precomputed XC quadrature information.
          Solving linear equations simultaneously, MaxMat=      72.
 FoFJK:  IHMeth= 1 ICntrl=    6127 DoSepK=F KAlg= 0 I1Cent=   0 FoldK=F
 IRaf=         1 NMat=   1 IRICut=       1 DoRegI=T DoRafI=F ISym2E= 0.
 Defaulting to unpruned grid for atomic number  78.
 Defaulting to unpruned grid for atomic number  78.
 Defaulting to unpruned grid for atomic number  78.
 Defaulting to unpruned grid for atomic number  78.
 Defaulting to unpruned grid for atomic number  78.
 Defaulting to unpruned grid for atomic number  78.
 Defaulting to unpruned grid for atomic number  78.
 Defaulting to unpruned grid for atomic number  78.
          There are     3 degrees of freedom in the 1st order CPHF.  IDoFFX=0 NUNeed=     3.
      3 vectors produced by pass  0 Test12= 1.54D-11 3.33D-08 XBig12= 1.93D+03 2.82D+00.
 AX will form     3 AO Fock derivatives at one time.
 InvSVY:  IOpt=1 It=  1 EMax= 0.00D+00
 Solved reduced A of dimension     3 with     3 vectors.
 Calculating GIAO nuclear magnetic shielding tensors.
 SCF GIAO Magnetic shielding tensor (ppm):
      1  Pt   Isotropic =  3188.3287   Anisotropy =  1623.8736
   XX=  3761.1334   YX=  -265.4227   ZX=   125.3802
   XY=   -69.2881   YY=  4207.5678   ZY=   173.7595
   XZ=    99.1151   YZ=   198.3667   ZZ=  1596.2848
   Eigenvalues:  1576.0487  3718.0262  4270.9111
      2  Sn   Isotropic =  2166.7863   Anisotropy =   638.0477
   XX=  2403.4836   YX=   266.4787   ZX=   -32.9973
   XY=   281.6877   YY=  2191.6137   ZY=     5.3883
   XZ=   -46.3632   YZ=    29.7149   ZZ=  1905.2616
   Eigenvalues:  1892.2880  2015.9195  2592.1514
      3  Cl   Isotropic =   750.8913   Anisotropy =   299.7204
   XX=   880.4528   YX=  -127.5424   ZX=   -36.8389
   XY=  -129.8554   YY=   683.0284   ZY=    27.3933
   XZ=   -17.8312   YZ=    51.3878   ZZ=   689.1927
   Eigenvalues:   612.0327   689.9364   950.7049
      4  Cl   Isotropic =   761.3104   Anisotropy =   327.3068
   XX=   653.4552   YX=    10.8736   ZX=   -64.9574
   XY=    13.7817   YY=   779.3415   ZY=  -155.5088
   XZ=   -57.3582   YZ=  -145.4655   ZZ=   851.1345
   Eigenvalues:   623.1940   681.2222   979.5149
      5  Cl   Isotropic =   778.3120   Anisotropy =   323.7865
   XX=   694.0496   YX=    40.3237   ZX=    85.4828
   XY=    45.0506   YY=   792.1880   ZY=   153.2462
   XZ=    72.0043   YZ=   137.0949   ZZ=   848.6985
   Eigenvalues:   653.8060   686.9604   994.1697
      6  Cl   Isotropic =   953.1935   Anisotropy =   717.5163
   XX=   697.2979   YX=   -93.5078   ZX=    47.0212
   XY=  -103.8941   YY=   731.9240   ZY=     4.3264
   XZ=     5.1670   YZ=   -23.5995   ZZ=  1430.3587
   Eigenvalues:   614.1695   813.8734  1431.5377
      7  As   Isotropic =   967.3011   Anisotropy =   277.9842
   XX=   923.0095   YX=  -128.9851   ZX=   -49.4894
   XY=  -117.3548   YY=  1081.6308   ZY=    20.9270
   XZ=  -103.2105   YZ=   -35.5483   ZZ=   897.2631
   Eigenvalues:   802.0839   947.1956  1152.6240
      8  As   Isotropic =   991.1336   Anisotropy =   225.0192
   XX=  1109.6464   YX=    66.2774   ZX=    18.1434
   XY=    77.1736   YY=   970.5280   ZY=   -14.4224
   XZ=    46.7966   YZ=   -54.3183   ZZ=   893.2263
   Eigenvalues:   865.8266   966.4278  1141.1463
      9  C    Isotropic =    41.4605   Anisotropy =   152.8292
   XX=    75.3486   YX=   -77.8098   ZX=    -7.9841
   XY=   -85.0330   YY=    39.8893   ZY=    20.8689
   XZ=   -12.2687   YZ=    11.1380   ZZ=     9.1437
   Eigenvalues:   -26.8069     7.8417   143.3467
     10  C    Isotropic =    48.8009   Anisotropy =   182.9049
   XX=   129.1936   YX=   -58.4676   ZX=   -12.9437
   XY=   -70.3789   YY=    61.4093   ZY=    29.7618
   XZ=    -4.8641   YZ=    32.2429   ZZ=   -44.2001
   Eigenvalues:   -53.0935    28.7587   170.7376
     11  C    Isotropic =    44.2588   Anisotropy =   187.4807
   XX=   106.6832   YX=   -74.3771   ZX=   -48.9077
   XY=   -84.7706   YY=    54.2626   ZY=   -12.7431
   XZ=   -50.5719   YZ=   -20.5259   ZZ=   -28.1694
   Eigenvalues:   -62.8193    26.3497   169.2459
     12  C    Isotropic =    43.0624   Anisotropy =   158.6635
   XX=    84.5204   YX=   -83.8075   ZX=   -52.2617
   XY=   -65.6314   YY=    57.7038   ZY=   -27.2509
   XZ=   -37.2767   YZ=   -29.1823   ZZ=   -13.0369
   Eigenvalues:   -60.1465    40.4958   148.8381
     13  H    Isotropic =    26.4028   Anisotropy =     7.7654
   XX=    29.8144   YX=     1.2076   ZX=     0.8094
   XY=     0.5422   YY=    29.2413   ZY=     2.7172
   XZ=     3.4495   YZ=     3.3875   ZZ=    20.1527
   Eigenvalues:    18.9259    28.7028    31.5797
     14  C    Isotropic =    41.5976   Anisotropy =   154.6209
   XX=   101.3580   YX=   -60.7578   ZX=     8.6313
   XY=   -50.2133   YY=    65.8827   ZY=    36.2001
   XZ=    -3.3251   YZ=    46.6200   ZZ=   -42.4479
   Eigenvalues:   -59.3758    39.4903   144.6782
     15  H    Isotropic =    25.1947   Anisotropy =    11.5168
   XX=    25.8716   YX=     2.8002   ZX=    -1.2088
   XY=     2.9604   YY=    27.1836   ZY=    -5.4464
   XZ=    -3.8897   YZ=    -5.4800   ZZ=    22.5289
   Eigenvalues:    18.8679    23.8437    32.8725
     16  C    Isotropic =     2.2594   Anisotropy =   153.8100
   XX=    27.9382   YX=  -105.0508   ZX=    -2.2918
   XY=   -81.6090   YY=   -12.4008   ZY=    15.9786
   XZ=    -5.7007   YZ=    16.2213   ZZ=    -8.7590
   Eigenvalues:   -88.9816    -9.0395   104.7994
     17  H    Isotropic =    23.7493   Anisotropy =     9.6411
   XX=    19.2215   YX=     2.5363   ZX=    -1.9170
   XY=     2.8061   YY=    28.6319   ZY=    -2.2216
   XZ=    -0.8829   YZ=    -1.9537   ZZ=    23.3946
   Eigenvalues:    18.3669    22.7044    30.1767
     18  H    Isotropic =    23.5511   Anisotropy =     9.5346
   XX=    20.8410   YX=     4.3122   ZX=     2.4498
   XY=     3.2152   YY=    28.3352   ZY=    -0.2055
   XZ=     1.2294   YZ=    -0.7591   ZZ=    21.4770
   Eigenvalues:    18.1942    22.5515    29.9074
     19  C    Isotropic =    60.9394   Anisotropy =   182.3195
   XX=   135.9996   YX=    53.0450   ZX=    59.8454
   XY=    36.0587   YY=    36.3014   ZY=    13.7800
   XZ=    78.4546   YZ=    22.8066   ZZ=    10.5171
   Eigenvalues:   -20.1523    20.4847   182.4857
     20  C    Isotropic =    46.4910   Anisotropy =   175.4227
   XX=   135.9228   YX=    17.5759   ZX=    45.9080
   XY=    18.2318   YY=   -15.9528   ZY=    51.1520
   XZ=    57.7394   YZ=    57.7287   ZZ=    19.5029
   Eigenvalues:   -56.9845    33.0180   163.4394
     21  C    Isotropic =    52.1301   Anisotropy =   191.6914
   XX=   137.1619   YX=    61.4675   ZX=    48.9312
   XY=    60.6077   YY=   -34.4838   ZY=     4.7370
   XZ=    60.0974   YZ=     9.5709   ZZ=    53.7122
   Eigenvalues:   -54.9814    31.4473   179.9244
     22  C    Isotropic =    41.5177   Anisotropy =   136.7303
   XX=    97.7972   YX=    49.8997   ZX=    44.6921
   XY=    45.6758   YY=   -30.2206   ZY=    -5.4340
   XZ=    36.3266   YZ=     0.0500   ZZ=    56.9766
   Eigenvalues:   -48.5177    40.3997   132.6713
     23  H    Isotropic =    24.2704   Anisotropy =    13.6300
   XX=    24.8509   YX=    -2.4855   ZX=    -4.2089
   XY=    -6.2047   YY=    25.2544   ZY=     5.9630
   XZ=    -3.6904   YZ=     4.4066   ZZ=    22.7060
   Eigenvalues:    18.5817    20.8724    33.3571
     24  C    Isotropic =    52.4634   Anisotropy =   152.0702
   XX=   125.7608   YX=    15.5053   ZX=    49.6374
   XY=    18.2815   YY=     9.6106   ZY=    59.3080
   XZ=    43.9451   YZ=    54.3527   ZZ=    22.0190
   Eigenvalues:   -43.6569    47.2037   153.8436
     25  H    Isotropic =    22.6506   Anisotropy =    14.9204
   XX=    18.8872   YX=     1.0375   ZX=    -5.3085
   XY=    -0.6773   YY=    18.7377   ZY=     1.4101
   XZ=    -5.4896   YZ=     1.5610   ZZ=    30.3271
   Eigenvalues:    16.5008    18.8536    32.5976
     26  C    Isotropic =    20.0184   Anisotropy =   129.0762
   XX=    65.5070   YX=    34.1001   ZX=    69.0952
   XY=    28.8524   YY=     3.4905   ZY=     4.9091
   XZ=    46.3263   YZ=     6.9415   ZZ=    -8.9424
   Eigenvalues:   -42.8414    -3.1726   106.0691
     27  H    Isotropic =    24.3176   Anisotropy =     7.1627
   XX=    22.9460   YX=    -0.2150   ZX=    -3.9924
   XY=    -1.2323   YY=    22.7960   ZY=     0.9230
   XZ=    -2.7463   YZ=    -0.7833   ZZ=    27.2109
   Eigenvalues:    20.8990    22.9611    29.0928
     28  H    Isotropic =    24.2423   Anisotropy =     9.9240
   XX=    23.1923   YX=    -2.3746   ZX=    -3.4015
   XY=    -2.5112   YY=    22.8040   ZY=     3.0611
   XZ=    -2.9014   YZ=     4.0092   ZZ=    26.7306
   Eigenvalues:    20.4348    21.4338    30.8583
     29  C    Isotropic =    24.6369   Anisotropy =   135.8275
   XX=    14.7729   YX=    44.1502   ZX=   -36.7015
   XY=    38.4021   YY=    80.6815   ZY=   -18.7577
   XZ=   -43.9088   YZ=   -40.0763   ZZ=   -21.5436
   Eigenvalues:   -47.6453     6.3675   115.1886
     30  C    Isotropic =    42.8944   Anisotropy =   168.4823
   XX=    59.1410   YX=    58.4662   ZX=   -12.4293
   XY=    57.6496   YY=    78.4521   ZY=   -79.5801
   XZ=    -8.6218   YZ=   -72.5336   ZZ=    -8.9099
   Eigenvalues:   -56.9705    30.4377   155.2159
     31  C    Isotropic =    38.3788   Anisotropy =   154.6222
   XX=     6.6626   YX=    87.9991   ZX=   -17.8978
   XY=    88.6535   YY=    53.2661   ZY=   -46.4541
   XZ=   -10.8612   YZ=   -36.0626   ZZ=    55.2077
   Eigenvalues:   -63.1279    36.8041   141.4603
     32  C    Isotropic =    47.4468   Anisotropy =   177.2462
   XX=    14.0554   YX=    95.1475   ZX=   -20.0641
   XY=   104.5565   YY=    73.2464   ZY=   -40.5680
   XZ=   -19.2336   YZ=   -40.7044   ZZ=    55.0388
   Eigenvalues:   -61.1817    37.9113   165.6110
     33  H    Isotropic =    23.8905   Anisotropy =    12.9629
   XX=    26.7867   YX=    -5.4652   ZX=     6.3112
   XY=    -5.3646   YY=    21.3872   ZY=     0.1739
   XZ=     3.6438   YZ=    -1.4759   ZZ=    23.4975
   Eigenvalues:    17.1379    22.0011    32.5324
     34  C    Isotropic =    54.8768   Anisotropy =   172.7813
   XX=    82.0290   YX=    56.8450   ZX=   -11.6002
   XY=    60.0392   YY=    89.9179   ZY=   -75.4080
   XZ=   -15.6591   YZ=   -76.7593   ZZ=    -7.3165
   Eigenvalues:   -51.2494    45.8155   170.0643
     35  H    Isotropic =    23.4993   Anisotropy =    13.8520
   XX=    20.2816   YX=     1.2847   ZX=     5.7812
   XY=     0.6105   YY=    19.7678   ZY=    -2.0414
   XZ=     4.1187   YZ=    -2.7599   ZZ=    30.4486
   Eigenvalues:    17.0140    20.7501    32.7340
     36  C    Isotropic =    36.1877   Anisotropy =   223.8342
   XX=    23.0609   YX=    82.3175   ZX=   -70.3881
   XY=    90.2490   YY=   102.5906   ZY=   -36.8694
   XZ=   -68.8322   YZ=   -48.9120   ZZ=   -17.0885
   Eigenvalues:   -72.1789    -4.6685   185.4104
     37  H    Isotropic =    22.6422   Anisotropy =     9.7393
   XX=    22.2597   YX=    -3.3381   ZX=     5.0573
   XY=    -3.1680   YY=    18.8849   ZY=     1.3578
   XZ=     2.9862   YZ=     2.3158   ZZ=    26.7821
   Eigenvalues:    15.6257    23.1658    29.1351
     38  H    Isotropic =    23.9152   Anisotropy =     9.1427
   XX=    25.2479   YX=    -2.2310   ZX=     3.9070
   XY=    -2.3735   YY=    21.5156   ZY=    -1.4834
   XZ=     3.7710   YZ=    -2.3607   ZZ=    24.9822
   Eigenvalues:    20.4134    21.3220    30.0104
     39  C    Isotropic =    63.8084   Anisotropy =   156.5096
   XX=   104.2702   YX=   -73.6272   ZX=     8.9285
   XY=   -62.8329   YY=    84.3919   ZY=    -9.2351
   XZ=    25.3693   YZ=   -37.7707   ZZ=     2.7633
   Eigenvalues:    -3.5403    26.8174   168.1482
     40  C    Isotropic =    56.0580   Anisotropy =   185.8570
   XX=    92.3553   YX=   -87.2111   ZX=    53.7678
   XY=   -87.8872   YY=    81.5764   ZY=    12.7337
   XZ=    45.3764   YZ=     3.4510   ZZ=    -5.7579
   Eigenvalues:   -45.4975    33.7087   179.9626
     41  C    Isotropic =    53.0129   Anisotropy =   177.8415
   XX=    68.6333   YX=  -111.6133   ZX=    26.3589
   XY=   -98.3127   YY=    47.3111   ZY=   -29.7612
   XZ=    24.5725   YZ=   -10.0912   ZZ=    43.0943
   Eigenvalues:   -47.5919    35.0567   171.5739
     42  C    Isotropic =    35.6710   Anisotropy =   143.4421
   XX=    50.2308   YX=   -92.9164   ZX=    11.8337
   XY=   -87.4120   YY=    17.6496   ZY=   -24.2985
   XZ=     6.5362   YZ=   -25.0768   ZZ=    39.1326
   Eigenvalues:   -59.4638    35.1777   131.2991
     43  H    Isotropic =    24.1873   Anisotropy =     9.1610
   XX=    24.7025   YX=     4.2321   ZX=     2.3564
   XY=     2.1696   YY=    24.4266   ZY=     3.9284
   XZ=     2.6268   YZ=     2.8553   ZZ=    23.4329
   Eigenvalues:    20.4782    21.7891    30.2947
     44  C    Isotropic =    45.9774   Anisotropy =   152.7739
   XX=    80.8049   YX=   -63.4435   ZX=    55.4156
   XY=   -61.8063   YY=    75.6016   ZY=     7.9278
   XZ=    56.0325   YZ=    15.1013   ZZ=   -18.4744
   Eigenvalues:   -54.9669    45.0724   147.8266
     45  H    Isotropic =    23.0739   Anisotropy =    13.4748
   XX=    22.7094   YX=    -1.8825   ZX=     1.2556
   XY=     2.0820   YY=    15.0450   ZY=     1.7850
   XZ=     2.6958   YZ=     1.5976   ZZ=    31.4671
   Eigenvalues:    14.8713    22.2932    32.0571
     46  C    Isotropic =    -4.7431   Anisotropy =   127.7421
   XX=    39.2719   YX=   -46.7895   ZX=    -0.7897
   XY=   -47.4920   YY=    10.2443   ZY=   -36.2279
   XZ=    13.4291   YZ=   -45.5167   ZZ=   -63.7454
   Eigenvalues:   -83.5866   -11.0611    80.4183
     47  H    Isotropic =    21.8985   Anisotropy =     9.3825
   XX=    20.0453   YX=     3.9910   ZX=     0.3173
   XY=     4.6819   YY=    17.8229   ZY=     2.7949
   XZ=    -0.4870   YZ=     0.5249   ZZ=    27.8273
   Eigenvalues:    14.3189    23.2230    28.1535
     48  H    Isotropic =    23.2411   Anisotropy =    10.0252
   XX=    22.2897   YX=     2.5986   ZX=     2.5184
   XY=     3.7238   YY=    21.2141   ZY=     2.6822
   XZ=     4.0441   YZ=     2.8434   ZZ=    26.2195
   Eigenvalues:    18.5453    21.2535    29.9246
     49  C    Isotropic =    73.7945   Anisotropy =   181.0270
   XX=    53.9548   YX=   -59.8714   ZX=   -12.0914
   XY=   -69.8231   YY=   152.0519   ZY=    36.8927
   XZ=   -15.5647   YZ=    44.6254   ZZ=    15.3769
   Eigenvalues:     3.4861    23.4183   194.4792
     50  C    Isotropic =    54.2432   Anisotropy =   174.1384
   XX=    20.4513   YX=   -48.9559   ZX=   -53.0955
   XY=   -45.0993   YY=   143.6144   ZY=    26.0597
   XZ=   -44.7857   YZ=    29.5531   ZZ=    -1.3360
   Eigenvalues:   -40.9646    33.3588   170.3355
     51  C    Isotropic =    59.3158   Anisotropy =   191.1839
   XX=    -7.7824   YX=   -79.6451   ZX=   -19.3524
   XY=   -90.0553   YY=   137.6759   ZY=    36.8737
   XZ=   -23.7436   YZ=    25.5296   ZZ=    48.0538
   Eigenvalues:   -47.2876    38.4632   186.7717
     52  C    Isotropic =    35.1695   Anisotropy =   110.6324
   XX=   -26.1067   YX=   -64.6930   ZX=    -6.0295
   XY=   -39.7145   YY=    82.5102   ZY=    18.8933
   XZ=     3.9845   YZ=    18.9296   ZZ=    49.1051
   Eigenvalues:   -47.5242    44.1083   108.9245
     53  H    Isotropic =    24.4610   Anisotropy =    11.8047
   XX=    27.8245   YX=     6.3064   ZX=    -4.7718
   XY=     1.4698   YY=    22.7981   ZY=    -1.5241
   XZ=    -4.3286   YZ=    -1.7126   ZZ=    22.7605
   Eigenvalues:    19.8362    21.2161    32.3308
     54  C    Isotropic =    46.1984   Anisotropy =   148.8208
   XX=    33.4247   YX=   -33.4651   ZX=   -46.5875
   XY=   -33.4235   YY=   125.0566   ZY=    19.2253
   XZ=   -52.5745   YZ=    28.2627   ZZ=   -19.8861
   Eigenvalues:   -49.5876    42.7706   145.4123
     55  H    Isotropic =    22.4848   Anisotropy =    15.1704
   XX=    20.9607   YX=    -0.7248   ZX=    -3.6337
   XY=     2.2603   YY=    16.2321   ZY=    -4.8300
   XZ=    -3.0207   YZ=    -4.2403   ZZ=    30.2616
   Eigenvalues:    14.8859    19.9701    32.5984
     56  C    Isotropic =     0.7684   Anisotropy =   118.7205
   XX=     2.5049   YX=   -41.8644   ZX=     6.6525
   XY=   -35.5292   YY=    50.1815   ZY=    32.5938
   XZ=     5.8370   YZ=    47.0938   ZZ=   -50.3813
   Eigenvalues:   -69.7286    -7.8817    79.9154
     57  H    Isotropic =    23.4923   Anisotropy =     7.7074
   XX=    23.1769   YX=     2.4667   ZX=    -1.8877
   XY=     1.5516   YY=    19.6827   ZY=    -2.3552
   XZ=     0.1302   YZ=    -2.3470   ZZ=    27.6172
   Eigenvalues:    18.4034    23.4429    28.6306
     58  H    Isotropic =    23.2985   Anisotropy =    11.3871
   XX=    24.7098   YX=     2.7588   ZX=    -4.0504
   XY=     3.7440   YY=    19.8341   ZY=    -2.2905
   XZ=    -4.4783   YZ=    -3.0730   ZZ=    25.3516
   Eigenvalues:    18.1497    20.8559    30.8899
     59  C    Isotropic =    62.3332   Anisotropy =   176.1080
   XX=    96.7740   YX=    87.8711   ZX=   -28.4862
   XY=    91.7865   YY=    70.2892   ZY=   -22.3503
   XZ=   -16.1181   YZ=   -15.9491   ZZ=    19.9362
   Eigenvalues:    -7.2683    14.5292   179.7385
     60  C    Isotropic =    60.4476   Anisotropy =   211.2689
   XX=   103.6285   YX=    88.0749   ZX=   -34.6038
   XY=    89.3748   YY=   112.8957   ZY=    -8.0329
   XZ=   -49.5268   YZ=     1.9502   ZZ=   -35.1813
   Eigenvalues:   -50.6299    30.6793   201.2936
     61  C    Isotropic =    67.1264   Anisotropy =   215.4597
   XX=   113.1800   YX=    91.3031   ZX=    -6.9721
   XY=    97.6720   YY=   110.2340   ZY=   -46.6227
   XZ=     8.7116   YZ=   -46.8353   ZZ=   -22.0348
   Eigenvalues:   -44.7237    35.3367   210.7662
     62  C    Isotropic =    43.2364   Anisotropy =   130.0221
   XX=    76.2976   YX=    61.1639   ZX=    14.7572
   XY=    48.4214   YY=    64.6123   ZY=   -49.7547
   XZ=    11.7117   YZ=   -48.9606   ZZ=   -11.2007
   Eigenvalues:   -47.3801    47.1715   129.9178
     63  H    Isotropic =    24.5592   Anisotropy =    14.3566
   XX=    24.7635   YX=    -6.6203   ZX=    -4.1037
   XY=    -5.7522   YY=    27.6422   ZY=     1.1954
   XZ=    -3.8303   YZ=     3.9288   ZZ=    21.2718
   Eigenvalues:    18.3440    21.2033    34.1302
     64  C    Isotropic =    41.0502   Anisotropy =   128.7996
   XX=    66.7404   YX=    57.7962   ZX=   -41.9528
   XY=    44.8912   YY=    80.8718   ZY=    15.6742
   XZ=   -36.0509   YZ=    17.2871   ZZ=   -24.4615
   Eigenvalues:   -48.4438    44.6778   126.9166
     65  H    Isotropic =    24.6595   Anisotropy =    15.7016
   XX=    25.6394   YX=    -8.8233   ZX=     3.3585
   XY=    -7.5312   YY=    25.7211   ZY=    -1.3956
   XZ=     3.9679   YZ=    -2.5208   ZZ=    22.6181
   Eigenvalues:    17.1744    21.6769    35.1273
     66  C    Isotropic =     5.4350   Anisotropy =   114.1737
   XX=     7.8898   YX=    83.6255   ZX=   -12.7430
   XY=    57.0414   YY=    10.8493   ZY=    -4.9183
   XZ=    -8.3686   YZ=    -9.1222   ZZ=    -2.4342
   Eigenvalues:   -61.0996    -4.1462    81.5508
     67  H    Isotropic =    23.6661   Anisotropy =     9.9706
   XX=    24.4821   YX=    -5.2702   ZX=     2.2962
   XY=    -6.0819   YY=    23.8407   ZY=    -1.4612
   XZ=     1.1532   YZ=    -0.3781   ZZ=    22.6756
   Eigenvalues:    18.4089    22.2763    30.3132
     68  H    Isotropic =    23.4815   Anisotropy =    10.3731
   XX=    24.1134   YX=    -6.2244   ZX=    -0.9952
   XY=    -6.2167   YY=    23.8095   ZY=     1.6697
   XZ=     0.1968   YZ=     1.2104   ZZ=    22.5216
   Eigenvalues:    17.6205    22.4272    30.3969
     69  C    Isotropic =   160.6332   Anisotropy =    43.5315
   XX=   149.7701   YX=    -2.1535   ZX=   -16.8929
   XY=    -6.1859   YY=   151.3785   ZY=     8.4293
   XZ=   -16.4095   YZ=     5.2760   ZZ=   180.7509
   Eigenvalues:   142.3634   149.8819   189.6541
     70  H    Isotropic =    28.9672   Anisotropy =     8.9419
   XX=    25.0427   YX=     0.1320   ZX=    -1.3970
   XY=     0.3074   YY=    30.9248   ZY=     3.3604
   XZ=    -1.5508   YZ=     4.4753   ZZ=    30.9342
   Eigenvalues:    24.4153    27.5579    34.9285
     71  H    Isotropic =    28.7720   Anisotropy =    10.0513
   XX=    33.7048   YX=    -2.5283   ZX=    -4.1451
   XY=    -1.5155   YY=    25.4501   ZY=     0.2268
   XZ=    -2.4081   YZ=     0.5903   ZZ=    27.1611
   Eigenvalues:    24.8774    25.9657    35.4729
     72  H    Isotropic =    29.1190   Anisotropy =     7.3328
   XX=    25.4315   YX=    -1.2087   ZX=    -3.0395
   XY=    -2.2362   YY=    29.0193   ZY=    -0.6495
   XZ=    -1.8882   YZ=    -3.0434   ZZ=    32.9062
   Eigenvalues:    23.7595    29.5900    34.0076
     73  C    Isotropic =   163.9219   Anisotropy =    36.3076
   XX=   167.0145   YX=     1.7573   ZX=    18.5412
   XY=    -0.8962   YY=   151.7493   ZY=    -4.8417
   XZ=    17.0330   YZ=    -0.3890   ZZ=   173.0019
   Eigenvalues:   149.7983   153.8404   188.1270
     74  H    Isotropic =    28.4516   Anisotropy =     9.2860
   XX=    33.9311   YX=    -1.8408   ZX=     2.2760
   XY=    -0.6922   YY=    24.0153   ZY=     2.1859
   XZ=     1.9907   YZ=     0.1255   ZZ=    27.4085
[...]
 Alpha virt. eigenvalues --    1.82397   1.82589   1.82847   1.83148   1.83354
 Alpha virt. eigenvalues --    1.83606   1.83816   1.84116   1.84301   1.84482
 Alpha virt. eigenvalues --    1.84623   1.84971   1.85722   1.86027   1.86276
 Alpha virt. eigenvalues --    1.86437   1.86711   1.87025   1.87244   1.87594
 Alpha virt. eigenvalues --    1.88175   1.88682   1.89000   1.89148   1.90103
 Alpha virt. eigenvalues --    1.90549   1.90880   1.91384   1.92130   1.92763
 Alpha virt. eigenvalues --    1.92818   1.93081   1.93557   1.94035   1.94208
 Alpha virt. eigenvalues --    1.94407   1.94590   1.94796   1.95030   1.95361
 Alpha virt. eigenvalues --    1.95822   1.95913   1.96562   1.96710   1.97042
 Alpha virt. eigenvalues --    1.97266   1.97488   1.97651   1.97838   1.98057
 Alpha virt. eigenvalues --    1.98362   1.98411   1.98986   1.99062   1.99335
 Alpha virt. eigenvalues --    1.99602   1.99718   2.00078   2.00177   2.00688
 Alpha virt. eigenvalues --    2.00798   2.01486   2.01733   2.01885   2.01982
 Alpha virt. eigenvalues --    2.02255   2.02443   2.02701   2.03053   2.03512
 Alpha virt. eigenvalues --    2.03703   2.04112   2.04572   2.04820   2.04989
 Alpha virt. eigenvalues --    2.05132   2.05398   2.05951   2.06388   2.06550
 Alpha virt. eigenvalues --    2.06974   2.07257   2.07557   2.07694   2.08111
 Alpha virt. eigenvalues --    2.08716   2.09207   2.09594   2.09903   2.10153
 Alpha virt. eigenvalues --    2.11083   2.11435   2.11696   2.12184   2.12293
 Alpha virt. eigenvalues --    2.13045   2.13330   2.13616   2.13897   2.14428
 Alpha virt. eigenvalues --    2.14749   2.14944   2.15256   2.15416   2.15907
 Alpha virt. eigenvalues --    2.16636   2.16932   2.17241   2.17752   2.17937
 Alpha virt. eigenvalues --    2.18481   2.18762   2.18977   2.19288   2.19675
 Alpha virt. eigenvalues --    2.20308   2.20372   2.20649   2.20953   2.21393
 Alpha virt. eigenvalues --    2.21713   2.22327   2.22702   2.23054   2.23481
 Alpha virt. eigenvalues --    2.23687   2.24860   2.25094   2.25226   2.25474
 Alpha virt. eigenvalues --    2.26021   2.26272   2.26516   2.27127   2.27401
 Alpha virt. eigenvalues --    2.27645   2.28032   2.28495   2.28866   2.29128
 Alpha virt. eigenvalues --    2.29421   2.29463   2.29587   2.29708   2.30089
 Alpha virt. eigenvalues --    2.30213   2.30418   2.30709   2.30826   2.31221
 Alpha virt. eigenvalues --    2.31327   2.31581   2.32243   2.32358   2.32710
 Alpha virt. eigenvalues --    2.33033   2.33212   2.33460   2.33556   2.33984
 Alpha virt. eigenvalues --    2.34672   2.34834   2.34901   2.35071   2.35466
 Alpha virt. eigenvalues --    2.36038   2.36325   2.36836   2.37048   2.37806
 Alpha virt. eigenvalues --    2.38394   2.38853   2.39096   2.39556   2.39789
 Alpha virt. eigenvalues --    2.40071   2.40836   2.41220   2.41490   2.41691
 Alpha virt. eigenvalues --    2.42039   2.42651   2.42804   2.43257   2.43495
 Alpha virt. eigenvalues --    2.43499   2.43873   2.44511   2.44785   2.45234
 Alpha virt. eigenvalues --    2.45429   2.45838   2.46318   2.46746   2.47192
 Alpha virt. eigenvalues --    2.47636   2.47927   2.48762   2.48926   2.49211
 Alpha virt. eigenvalues --    2.49862   2.50152   2.51139   2.51449   2.51926
 Alpha virt. eigenvalues --    2.52034   2.52629   2.52833   2.52963   2.53496
 Alpha virt. eigenvalues --    2.54146   2.54356   2.54881   2.55416   2.55978
 Alpha virt. eigenvalues --    2.56744   2.57386   2.57715   2.58208   2.58808
 Alpha virt. eigenvalues --    2.59072   2.59196   2.60284   2.60446   2.61759
 Alpha virt. eigenvalues --    2.62220   2.62533   2.63005   2.63378   2.64195
 Alpha virt. eigenvalues --    2.64454   2.64970   2.66941   2.67684   2.69070
 Alpha virt. eigenvalues --    2.69287   2.69519   2.69714   2.69984   2.70100
 Alpha virt. eigenvalues --    2.70592   2.70826   2.71173   2.71762   2.72066
 Alpha virt. eigenvalues --    2.72474   2.72686   2.73087   2.73301   2.73935
 Alpha virt. eigenvalues --    2.74148   2.74611   2.74975   2.75525   2.76350
 Alpha virt. eigenvalues --    2.77594   2.78501   2.78596   2.79033   2.79458
 Alpha virt. eigenvalues --    2.79723   2.79924   2.80057   2.80887   2.81431
 Alpha virt. eigenvalues --    2.81733   2.82455   2.82968   2.84094   2.84199
 Alpha virt. eigenvalues --    2.85215   2.85782   2.86116   2.86520   2.87000
 Alpha virt. eigenvalues --    2.87195   2.87689   2.88100   2.88718   2.89194
 Alpha virt. eigenvalues --    2.89303   2.89990   2.90542   2.90724   2.90810
 Alpha virt. eigenvalues --    2.91671   2.91929   2.92573   2.92831   2.93071
 Alpha virt. eigenvalues --    2.93432   2.94225   2.94760   2.95150   2.95893
 Alpha virt. eigenvalues --    2.96358   2.96535   2.97077   2.97526   2.98105
 Alpha virt. eigenvalues --    2.98405   2.99130   2.99345   2.99628   3.00731
 Alpha virt. eigenvalues --    3.00955   3.01273   3.01902   3.02742   3.03938
 Alpha virt. eigenvalues --    3.04167   3.05282   3.06080   3.06377   3.06991
 Alpha virt. eigenvalues --    3.08426   3.09584   3.09821   3.10018   3.10454
 Alpha virt. eigenvalues --    3.10965   3.11064   3.11149   3.11372   3.11630
 Alpha virt. eigenvalues --    3.12252   3.12727   3.12989   3.13485   3.13537
 Alpha virt. eigenvalues --    3.13723   3.14236   3.14506   3.14706   3.15492
 Alpha virt. eigenvalues --    3.16454   3.16617   3.16954   3.17321   3.17366
 Alpha virt. eigenvalues --    3.18080   3.18869   3.19086   3.19539   3.19655
 Alpha virt. eigenvalues --    3.20171   3.20616   3.21298   3.21808   3.22673
 Alpha virt. eigenvalues --    3.22952   3.24016   3.24501   3.25399   3.27163
 Alpha virt. eigenvalues --    3.27828   3.28455   3.28612   3.28819   3.29297
 Alpha virt. eigenvalues --    3.32079   3.33449   3.34178   3.34405   3.34995
 Alpha virt. eigenvalues --    3.37649   3.40140   3.40711   3.46187   3.47318
 Alpha virt. eigenvalues --    3.47647   3.48348   3.48979   3.49708   3.51130
 Alpha virt. eigenvalues --    3.52527   3.52816   3.53772   3.54481   3.54973
 Alpha virt. eigenvalues --    3.56086   3.57252   3.60904   3.68391   3.79667
 Alpha virt. eigenvalues --    3.82171   3.83553   3.84641   3.87133   3.89052
 Alpha virt. eigenvalues --    3.92410   3.94819   4.05242   4.07091   4.08417
 Alpha virt. eigenvalues --    4.11322   4.11728   4.13260   4.13787   4.18378
 Alpha virt. eigenvalues --    4.21759   4.24360   4.25485   4.25759   4.25882
 Alpha virt. eigenvalues --    4.26483   4.26912   4.27285   4.27592   4.28053
 Alpha virt. eigenvalues --    4.28546   4.29009   4.29768   4.30823   4.31618
 Alpha virt. eigenvalues --    4.32247   4.32779   4.33992   4.34273   4.35278
 Alpha virt. eigenvalues --    4.35807   4.36681   4.37528   4.38035   4.38781
 Alpha virt. eigenvalues --    4.39354   4.40387   4.41342   4.41838   4.42302
 Alpha virt. eigenvalues --    4.42851   4.44348   4.45096   4.45568   4.46897
 Alpha virt. eigenvalues --    4.48381   4.49953   4.51978   4.53246   4.54601
 Alpha virt. eigenvalues --    4.55008   4.56319   4.56652   4.57801   4.59727
 Alpha virt. eigenvalues --    4.60455   4.61041   4.62880   4.64756   4.73134
 Alpha virt. eigenvalues --    4.74117   4.80786   4.81062   4.81431   4.83013
 Alpha virt. eigenvalues --    4.84534   4.87091   5.18215   5.20871   5.25289
 Alpha virt. eigenvalues --    5.28074   5.44361   5.46562   5.48938   5.53523
 Alpha virt. eigenvalues --    5.55877   5.60767   5.64658   5.65647   5.70032
 Alpha virt. eigenvalues --    5.82256   6.06140   6.10563   6.69710   6.70336
 Alpha virt. eigenvalues --    6.70640   6.70722   6.70925   6.71526   6.73695
 Alpha virt. eigenvalues --    6.74113   6.74423   6.75273   6.75794   6.75912
 Alpha virt. eigenvalues --    6.77511   6.77668   6.77993   6.78491   6.78611
 Alpha virt. eigenvalues --    6.79204   6.81449   6.82157   6.82852   6.83052
 Alpha virt. eigenvalues --    6.84475   6.85710   6.86134   6.87233   6.88215
 Alpha virt. eigenvalues --    6.88680   6.88981   6.89036   6.89661   6.90726
 Alpha virt. eigenvalues --    6.92003   6.93298   6.94369   7.10124   7.13057
 Alpha virt. eigenvalues --    7.13189   7.14375   7.15795   7.17048   7.20041
 Alpha virt. eigenvalues --    7.22153   7.23088   7.23913   7.24602   7.28951
 Alpha virt. eigenvalues --    8.47835   8.47931   8.48014   8.49998   8.50986
 Alpha virt. eigenvalues --    8.51777   8.52362   8.59029   8.62913   8.96594
 Alpha virt. eigenvalues --    9.82606   9.84672   9.85643   9.86639   9.87165
 Alpha virt. eigenvalues --    9.89222   9.91206   9.94287   9.95761   9.98171
 Alpha virt. eigenvalues --   10.00078  10.00717  10.03684  10.04704  10.08265
 Alpha virt. eigenvalues --   10.12343  10.20949  13.68464  13.70141  15.62457
 Alpha virt. eigenvalues --   16.74895  16.79082  16.86888  17.02023  17.02360
 Alpha virt. eigenvalues --   17.02841  17.03158  17.03741  17.03799  17.04212
 Alpha virt. eigenvalues --   17.05313  17.06134  17.07272  17.07705  17.08391
 Alpha virt. eigenvalues --   17.08732  17.09595  17.10112  17.10500  17.12349
 Alpha virt. eigenvalues --   17.12781  17.13595  17.13830  17.15365  17.15437
 Alpha virt. eigenvalues --   17.15777  17.18238  17.18946  17.21163  17.24091
 Alpha virt. eigenvalues --   17.24817  17.27905  17.29363  17.32013  17.32768
 Alpha virt. eigenvalues --   17.33278  17.34965  17.35232  17.35505  17.36088
 Alpha virt. eigenvalues --   17.36983  17.37805  17.38649  17.39418  17.41019
 Alpha virt. eigenvalues --   17.43517  18.68132  18.72247  18.76050  18.76898
 Alpha virt. eigenvalues --   18.77612  18.78637  21.05006  21.24040  21.30295
 Alpha virt. eigenvalues --   25.47083  25.50902  25.62086  26.11031  31.65779
 Alpha virt. eigenvalues --   31.68026  31.72452  31.75497  31.76461  42.92874
 Alpha virt. eigenvalues --   42.96272  42.98940  43.00448  43.11776  59.11829
 Alpha virt. eigenvalues --   59.13146  62.99161  78.07371  78.11023  78.18308
 Alpha virt. eigenvalues --   78.32302  82.14626  86.16337  86.32674  86.36996
 Alpha virt. eigenvalues --   89.25655  89.27591  89.27834  89.29269  89.29644
 Alpha virt. eigenvalues --   89.30034  89.30310  89.30976  89.31688  89.32633
 Alpha virt. eigenvalues --   89.33589  89.34990  89.35596  89.35732  89.36033
 Alpha virt. eigenvalues --   89.37283  89.38339  89.39747  89.40711  89.41682
 Alpha virt. eigenvalues --   89.42352  89.42502  89.43673  89.45374  89.47462
 Alpha virt. eigenvalues --   89.50186  89.51167  89.54348  89.55643  89.58153
 Alpha virt. eigenvalues --   89.59255  89.60127  89.61596  89.61946  89.62656
 Alpha virt. eigenvalues --   89.63952  89.64876  89.65846  89.66370  89.67000
 Alpha virt. eigenvalues --   89.68130  89.71099  98.66358  98.69176  98.72125
 Alpha virt. eigenvalues --   98.72633  98.73118  98.74214 121.82283 121.85001
 Alpha virt. eigenvalues --  121.92927 239.17155 250.91300 250.92362 257.26238
 Alpha virt. eigenvalues --  428.76082 428.88613 428.92262 431.69083 431.72897
 Alpha virt. eigenvalues --  431.80677 431.95168 590.19697 590.21798 590.27888
 Alpha virt. eigenvalues --  772.94212 839.57206 922.77750 922.785972068.54524
 Alpha virt. eigenvalues -- 2529.949164878.445764878.458575495.34835**********
 Alpha virt. eigenvalues -- ********************
          Condensed to atoms (all electrons):
 Mulliken charges:
               1
     1  Pt  -0.241662
     2  Sn   0.384624
     3  Cl  -0.213540
     4  Cl  -0.207097
     5  Cl  -0.204908
     6  Cl  -0.409457
     7  As   0.864424
     8  As   0.694435
     9  C   -0.070479
    10  C    0.090048
    11  C    0.020440
    12  C   -0.220647
    13  H    0.059258
    14  C   -0.361626
    15  H    0.066116
    16  C    0.036320
    17  H    0.078098
    18  H    0.088142
    19  C   -0.038223
    20  C    0.129103
    21  C    0.290258
    22  C   -0.169136
    23  H    0.076166
    24  C   -0.602544
    25  H    0.069846
    26  C   -0.199928
    27  H    0.106672
    28  H    0.095403
    29  C   -0.053994
    30  C   -0.020512
    31  C    0.267792
    32  C   -0.147636
    33  H    0.066712
    34  C   -0.425776
    35  H    0.080082
    36  C   -0.213767
    37  H    0.107877
    38  H    0.103546
    39  C   -0.123280
    40  C    0.013277
    41  C    0.345152
    42  C   -0.207033
    43  H    0.046936
    44  C   -0.447355
    45  H    0.062186
    46  C   -0.091270
    47  H    0.094615
    48  H    0.098530
    49  C   -0.035147
    50  C    0.161830
    51  C    0.222540
    52  C   -0.355234
    53  H    0.080852
    54  C   -0.409612
    55  H    0.061516
    56  C   -0.166429
    57  H    0.106864
    58  H    0.090508
    59  C   -0.011974
    60  C    0.098345
    61  C    0.057302
    62  C   -0.222488
    63  H    0.100186
    64  C   -0.292285
    65  H    0.091559
    66  C   -0.168091
    67  H    0.109555
    68  H    0.105715
    69  C   -0.340955
    70  H    0.150964
    71  H    0.153695
    72  H    0.142047
    73  C   -0.328300
    74  H    0.148320
    75  H    0.153694
    76  H    0.140208
    77  C   -0.352411
    78  H    0.145510
    79  H    0.145590
    80  H    0.147533
    81  C   -0.326756
    82  H    0.139096
    83  H    0.150614
    84  H    0.149563
    85  C   -0.365661
    86  H    0.146316
    87  H    0.155817
    88  H    0.148215
    89  C   -0.337178
    90  H    0.139809
    91  H    0.153758
    92  H    0.148812
 Sum of Mulliken charges =   0.00000
 Mulliken charges with hydrogens summed into heavy atoms:
               1
     1  Pt  -0.241662
     2  Sn   0.384624
     3  Cl  -0.213540
     4  Cl  -0.207097
     5  Cl  -0.204908
     6  Cl  -0.409457
     7  As   0.864424
     8  As   0.694435
     9  C   -0.070479
    10  C    0.149307
    11  C    0.086556
    12  C   -0.142549
    14  C   -0.273484
    16  C    0.036320
    19  C   -0.038223
    20  C    0.205269
    21  C    0.360104
    22  C   -0.062463
    24  C   -0.507141
    26  C   -0.199928
    29  C   -0.053994
    30  C    0.046199
    31  C    0.347874
    32  C   -0.039759
    34  C   -0.322230
    36  C   -0.213767
    39  C   -0.123280
    40  C    0.060213
    41  C    0.407338
    42  C   -0.112418
    44  C   -0.348825
    46  C   -0.091270
    49  C   -0.035147
    50  C    0.242682
    51  C    0.284056
    52  C   -0.248370
    54  C   -0.319105
    56  C   -0.166429
    59  C   -0.011974
    60  C    0.198531
    61  C    0.148862
    62  C   -0.112933
    64  C   -0.186570
    66  C   -0.168091
    69  C    0.105751
    73  C    0.113921
    77  C    0.086223
    81  C    0.112517
    85  C    0.084686
    89  C    0.105202
 Electronic spatial extent (au):  <R**2>=          39485.6710
 Charge=              0.0000 electrons
 Dipole moment (field-independent basis, Debye):
    X=             11.7372    Y=             18.8829    Z=              0.3856  Tot=             22.2368
 Quadrupole moment (field-independent basis, Debye-Ang):
   XX=           -368.4838   YY=           -399.1071   ZZ=           -331.3988
   XY=            -31.7999   XZ=             -0.6267   YZ=              0.2614
 Traceless Quadrupole moment (field-independent basis, Debye-Ang):
   XX=             -2.1539   YY=            -32.7772   ZZ=             34.9311
   XY=            -31.7999   XZ=             -0.6267   YZ=              0.2614
 Octapole moment (field-independent basis, Debye-Ang**2):
  XXX=            128.0629  YYY=             60.0116  ZZZ=              8.4793  XYY=            139.6994
  XXY=             71.0226  XXZ=            -34.9252  XZZ=            -26.6393  YZZ=             59.4629
  YYZ=             12.3567  XYZ=            -17.7388
 Hexadecapole moment (field-independent basis, Debye-Ang**3):
 XXXX=         -22494.7813 YYYY=         -15708.8547 ZZZZ=         -12049.8710 XXXY=           -665.1466
 XXXZ=             87.8236 YYYX=           -101.9524 YYYZ=             47.0691 ZZZX=           -102.6623
 ZZZY=             87.5657 XXYY=          -5960.9203 XXZZ=          -5295.0776 YYZZ=          -4680.2353
 XXYZ=            -63.3170 YYXZ=            -62.4491 ZZXY=             15.8892
 N-N= 1.630278577646D+04 E-N=-1.060650213443D+05  KE= 3.059382763091D+04
 Calculating spin-rotation constants.
 Leave Link  601 at Thu Sep  6 11:04:21 2018, MaxMem=  2013265920 cpu:      2119.8
 (Enter /scr/programs/g09/l9999.exe)
 1\1\GINC-NEQC17\SP\RPBEPBE\Gen\C42H42As2Cl4Pt1Sn1\DIEGO\06-Sep-2018\0\
 \#PBEPBE/gen scf=(maxcycle=1000,conver=4) NMR=GIAO Scrf=(solvent=Chlor
 oform)\\estrutura 13\\0,1\Pt,0,-0.160806,-1.056853,-0.11551\Sn,0,-2.50
 8487,-2.29995,-0.045528\Cl,0,-4.625669,-1.128711,0.166392\Cl,0,-2.7369
 39,-3.741684,1.885749\Cl,0,-3.068917,-3.778591,-1.867906\Cl,0,0.571626
 ,-3.354281,-0.329208\As,0,-1.168134,1.144196,-0.026116\As,0,2.222055,-
 0.327188,0.026525\C,0,-0.079606,2.74747,-0.319253\C,0,0.53652,3.402842
 ,0.756981\C,0,0.063357,3.278528,-1.610625\C,0,1.262662,4.577271,0.5425
 43\H,0,0.439764,3.014783,1.773269\C,0,0.797116,4.448998,-1.815212\H,0,
 -0.413419,2.794452,-2.46515\C,0,1.404582,5.12475,-0.744\H,0,1.721928,5
 .08094,1.397729\H,0,0.888344,4.850967,-2.828811\C,0,-2.059509,1.55819,
 1.658259\C,0,-2.548933,2.851045,1.915206\C,0,-2.221209,0.56763,2.63495
 8\C,0,-3.204642,3.130506,3.113925\H,0,-2.409433,3.654291,1.190361\C,0,
 -2.871958,0.858732,3.837687\H,0,-1.836497,-0.443594,2.472\C,0,-3.38241
 ,2.137832,4.097228\H,0,-3.584359,4.139568,3.291218\H,0,-2.984044,0.068
 261,4.586105\C,0,-2.499003,1.316045,-1.449693\C,0,-3.61539,2.156149,-1
 .329192\C,0,-2.311314,0.598477,-2.638711\C,0,-4.515636,2.281907,-2.386
 947\H,0,-3.806446,2.70168,-0.404466\C,0,-3.218047,0.732791,-3.695139\H
 ,0,-1.465117,-0.087093,-2.742736\C,0,-4.332681,1.579485,-3.591525\H,0,
 -5.386237,2.93451,-2.270239\H,0,-3.05821,0.15736,-4.611724\C,0,2.51869
 6,0.690907,1.666982\C,0,3.425225,1.752669,1.803754\C,0,1.812587,0.2513
 59,2.796838\C,0,3.633052,2.340536,3.052628\H,0,3.967969,2.140288,0.941
 229\C,0,2.031915,0.842573,4.044667\H,0,1.086131,-0.561475,2.708148\C,0
 ,2.951796,1.890974,4.198432\H,0,4.346137,3.165608,3.139375\H,0,1.47794
 6,0.476266,4.913356\C,0,2.886237,0.622492,-1.543512\C,0,4.171851,1.183
 712,-1.602542\C,0,2.097023,0.613229,-2.703838\C,0,4.638362,1.749022,-2
 .7918\H,0,4.834826,1.16317,-0.734579\C,0,2.579675,1.160805,-3.893628\H
 ,0,1.104684,0.157039,-2.683875\C,0,3.856209,1.743881,-3.959378\H,0,5.6
 41353,2.188158,-2.815984\H,0,1.952402,1.128883,-4.789525\C,0,3.566628,
 -1.743689,0.177892\C,0,3.982148,-2.418707,-0.979655\C,0,4.127491,-2.09
 8169,1.411866\C,0,4.956529,-3.414787,-0.901088\H,0,3.552507,-2.169925,
 -1.952684\C,0,5.101887,-3.097803,1.479251\H,0,3.817592,-1.595645,2.329
 994\C,0,5.540342,-3.76905,0.326877\H,0,5.268603,-3.928881,-1.814626\H,
 0,5.531876,-3.356813,2.451068\C,0,-4.111361,2.451001,5.379195\H,0,-3.7
 79936,3.411696,5.806328\H,0,-5.197475,2.537023,5.198535\H,0,-3.960719,
 1.664745,6.133373\C,0,-5.306052,1.743671,-4.731307\H,0,-6.349015,1.684
 973,-4.378136\H,0,-5.184182,2.730533,-5.212463\H,0,-5.159952,0.973778,
 -5.503843\C,0,2.192267,6.391281,-0.971406\H,0,1.810615,6.952943,-1.837
 575\H,0,2.160499,7.049991,-0.090585\H,0,3.254193,6.16446,-1.172155\C,0
 ,3.204551,2.522933,5.544152\H,0,2.679118,1.987045,6.34801\H,0,4.280455
 ,2.528502,5.782817\H,0,2.866908,3.572803,5.561427\C,0,6.623459,-4.8157
 91,0.402639\H,0,6.552398,-5.532863,-0.428893\H,0,7.62344,-4.349741,0.3
 491\H,0,6.577932,-5.376324,1.349106\C,0,4.381017,2.308913,-5.255823\H,
 0,5.296191,2.898709,-5.10149\H,0,4.622187,1.499554,-5.966401\H,0,3.632
 532,2.952,-5.745523\\Version=EM64L-G09RevD.01\State=1-A\HF=-31017.3864
 124\RMSD=8.383e-05\Dipole=4.6177774,7.4291208,0.151724\Quadrupole=-1.6
 013527,-24.3690806,25.9704333,-23.6424212,-0.4659522,0.1943269\PG=C01 
 [X(C42H42As2Cl4Pt1Sn1)]\\@


 A people that values its privileges above its principles soon loses both.
 -- Dwight D. Eisenhower
 Job cpu time:       1 days 23 hours 22 minutes 17.1 seconds.
 File lengths (MBytes):  RWF=   2894 Int=      0 D2E=      0 Chk=    206 Scr=      1
 Normal termination of Gaussian 09 at Thu Sep  6 11:04:22 2018.
