 Entering Gaussian System, Link 0=g09
 Input=estrutura30.com
 Output=estrutura30.log
 Initial command:
 /scr/programs/g09/l1.exe "/scr/diego/Gau-10708.inp" -scrdir="/scr/diego/"
 Entering Link 1 = /scr/programs/g09/l1.exe PID=     10709.
  
 Copyright (c) 1988,1990,1992,1993,1995,1998,2003,2009,2013,
            Gaussian, Inc.  All Rights Reserved.
  
 This is part of the Gaussian(R) 09 program.  It is based on
 the Gaussian(R) 03 system (copyright 2003, Gaussian, Inc.),
 the Gaussian(R) 98 system (copyright 1998, Gaussian, Inc.),
 the Gaussian(R) 94 system (copyright 1995, Gaussian, Inc.),
 the Gaussian 92(TM) system (copyright 1992, Gaussian, Inc.),
 the Gaussian 90(TM) system (copyright 1990, Gaussian, Inc.),
 the Gaussian 88(TM) system (copyright 1988, Gaussian, Inc.),
 the Gaussian 86(TM) system (copyright 1986, Carnegie Mellon
 University), and the Gaussian 82(TM) system (copyright 1983,
 Carnegie Mellon University). Gaussian is a federally registered
 trademark of Gaussian, Inc.
  
 This software contains proprietary and confidential information,
 including trade secrets, belonging to Gaussian, Inc.
  
 This software is provided under written license and may be
 used, copied, transmitted, or stored only in accord with that
 written license.
  
 The following legend is applicable only to US Government
 contracts under FAR:
  
                    RESTRICTED RIGHTS LEGEND
  
 Use, reproduction and disclosure by the US Government is
 subject to restrictions as set forth in subparagraphs (a)
 and (c) of the Commercial Computer Software - Restricted
 Rights clause in FAR 52.227-19.
  
 Gaussian, Inc.
 340 Quinnipiac St., Bldg. 40, Wallingford CT 06492
  
  
 ---------------------------------------------------------------
 Warning -- This program may not be used in any manner that
 competes with the business of Gaussian, Inc. or will provide
 assistance to any competitor of Gaussian, Inc.  The licensee
 of this program is prohibited from giving any competitor of
 Gaussian, Inc. access to this program.  By using this program,
 the user acknowledges that Gaussian, Inc. is engaged in the
 business of creating and licensing software in the field of
 computational chemistry and represents and warrants to the
 licensee that it is not a competitor of Gaussian, Inc. and that
 it will not use this program in any manner prohibited above.
 ---------------------------------------------------------------
  

 Cite this work as:
 Gaussian 09, Revision D.01,
 M. J. Frisch, G. W. Trucks, H. B. Schlegel, G. E. Scuseria, 
 M. A. Robb, J. R. Cheeseman, G. Scalmani, V. Barone, B. Mennucci, 
 G. A. Petersson, H. Nakatsuji, M. Caricato, X. Li, H. P. Hratchian, 
 A. F. Izmaylov, J. Bloino, G. Zheng, J. L. Sonnenberg, M. Hada, 
 M. Ehara, K. Toyota, R. Fukuda, J. Hasegawa, M. Ishida, T. Nakajima, 
 Y. Honda, O. Kitao, H. Nakai, T. Vreven, J. A. Montgomery, Jr., 
 J. E. Peralta, F. Ogliaro, M. Bearpark, J. J. Heyd, E. Brothers, 
 K. N. Kudin, V. N. Staroverov, T. Keith, R. Kobayashi, J. Normand, 
 K. Raghavachari, A. Rendell, J. C. Burant, S. S. Iyengar, J. Tomasi, 
 M. Cossi, N. Rega, J. M. Millam, M. Klene, J. E. Knox, J. B. Cross, 
 V. Bakken, C. Adamo, J. Jaramillo, R. Gomperts, R. E. Stratmann, 
 O. Yazyev, A. J. Austin, R. Cammi, C. Pomelli, J. W. Ochterski, 
 R. L. Martin, K. Morokuma, V. G. Zakrzewski, G. A. Voth, 
 P. Salvador, J. J. Dannenberg, S. Dapprich, A. D. Daniels, 
 O. Farkas, J. B. Foresman, J. V. Ortiz, J. Cioslowski, 
 and D. J. Fox, Gaussian, Inc., Wallingford CT, 2013.
 
 ******************************************
 Gaussian 09:  EM64L-G09RevD.01 24-Apr-2013
                23-May-2019 
 ******************************************
 %mem=15Gb
 %nproc=8
 Will use up to    8 processors via shared memory.
 ----------------------------------------------------------------------
 #PBEPBE/gen scf=(maxcycle=500,conver=4) NMR=GIAO Scrf=(solvent=Dichlor
 omethane)
 ----------------------------------------------------------------------
 1/38=1/1;
 2/12=2,17=6,18=5,40=1/2;
 3/5=7,11=2,16=1,25=1,30=1,70=2201,72=9,74=1009/1,2,8,3;
 4//1;
 5/5=2,6=4,7=500,38=5,53=9/2;
 8/6=1,10=90,11=11/1;
 10/13=100,45=16/2;
 6/7=2,8=2,9=2,10=2,28=1/1;
 99/9=1/99;
 Leave Link    1 at Thu May 23 01:59:40 2019, MaxMem=  2013265920 cpu:         0.4
 (Enter /scr/programs/g09/l101.exe)
 ------------
 estrutura 30
 ------------
 Symbolic Z-matrix:
 Charge = -1 Multiplicity = 1
 Pt                   -0.42184  -1.3866   -0.18717 
 Cl                   -2.31613  -2.91847  -0.29727 
 Cl                    1.1733   -3.20851  -0.33257 
 Sn                   -2.33378   0.34623  -0.03456 
 Cl                   -1.84714   2.7332    0.05393 
 Cl                   -3.82761   0.23686   1.86811 
 Cl                   -3.93163   0.42582  -1.854 
 As                    1.33157   0.22276   0.05162 
 C                     1.38189   1.54317  -1.3899 
 C                     2.12233   2.73574  -1.30583 
 C                     0.71116   1.22318  -2.58162 
 C                     2.1483    3.62137  -2.38845 
 H                     2.69326   2.9851   -0.40831 
 C                     0.7778    2.09322  -3.67611 
 H                     0.14152   0.29223  -2.65684 
 C                     1.48373   3.29726  -3.57836 
 H                     2.69355   4.56664  -2.30067 
 H                     0.26757   1.82862  -4.60617 
 H                     1.52222   3.98643  -4.42654 
 C                     1.16262   1.06803   1.81147 
 C                     1.36783   2.42997   2.07226 
 C                     0.80758   0.20811   2.86649 
 C                     1.24157   2.92038   3.37649 
 H                     1.60727   3.12799   1.27129 
 C                     0.68566   0.7027    4.16873 
 H                     0.60993  -0.84974   2.67148 
 C                     0.90601   2.05943   4.42587 
 H                     1.40169   3.98476   3.5662 
 H                     0.40698   0.02444   4.97946 
 H                     0.80628   2.44755   5.44258 
 C                     3.18651  -0.41047   0.01902 
 C                     3.7723   -0.69077  -1.22552 
 C                     3.92973  -0.58365   1.19441 
 C                     5.09711  -1.13008  -1.29159 
 H                     3.20265  -0.5602   -2.14957 
 C                     5.25678  -1.0258    1.12289 
 H                     3.48687  -0.37011   2.16987 
 C                     5.84207  -1.29696  -0.11785 
 H                     5.54743  -1.3404   -2.26555 
 H                     5.83389  -1.15471   2.04303 
 H                     6.87997  -1.63666  -0.17074 
 
 NAtoms=     41 NQM=       41 NQMF=       0 NMMI=      0 NMMIF=      0
                NMic=       0 NMicF=      0.
                    Isotopes and Nuclear Properties:
 (Nuclear quadrupole moments (NQMom) in fm**2, nuclear magnetic moments (NMagM)
  in nuclear magnetons)

  Atom         1           2           3           4           5           6           7           8           9          10
 IAtWgt=         195          35          35         118          35          35          35          75          12          12
 AtmWgt= 194.9648000  34.9688527  34.9688527 117.9018000  34.9688527  34.9688527  34.9688527  74.9215955  12.0000000  12.0000000
 NucSpn=           1           3           3           0           3           3           3           3           0           0
 AtZEff=   0.0000000   0.0000000   0.0000000   0.0000000   0.0000000   0.0000000   0.0000000   0.0000000   0.0000000   0.0000000
 NQMom=    0.0000000  -8.1650000  -8.1650000   0.0000000  -8.1650000  -8.1650000  -8.1650000  31.4000000   0.0000000   0.0000000
 NMagM=    0.6095000   0.8218740   0.8218740   0.0000000   0.8218740   0.8218740   0.8218740   1.4394700   0.0000000   0.0000000
 AtZNuc=  78.0000000  17.0000000  17.0000000  50.0000000  17.0000000  17.0000000  17.0000000  33.0000000   6.0000000   6.0000000

  Atom        11          12          13          14          15          16          17          18          19          20
 IAtWgt=          12          12           1          12           1          12           1           1           1          12
 AtmWgt=  12.0000000  12.0000000   1.0078250  12.0000000   1.0078250  12.0000000   1.0078250   1.0078250   1.0078250  12.0000000
 NucSpn=           0           0           1           0           1           0           1           1           1           0
 AtZEff=   0.0000000   0.0000000   0.0000000   0.0000000   0.0000000   0.0000000   0.0000000   0.0000000   0.0000000   0.0000000
 NQMom=    0.0000000   0.0000000   0.0000000   0.0000000   0.0000000   0.0000000   0.0000000   0.0000000   0.0000000   0.0000000
 NMagM=    0.0000000   0.0000000   2.7928460   0.0000000   2.7928460   0.0000000   2.7928460   2.7928460   2.7928460   0.0000000
 AtZNuc=   6.0000000   6.0000000   1.0000000   6.0000000   1.0000000   6.0000000   1.0000000   1.0000000   1.0000000   6.0000000

  Atom        21          22          23          24          25          26          27          28          29          30
 IAtWgt=          12          12          12           1          12           1          12           1           1           1
 AtmWgt=  12.0000000  12.0000000  12.0000000   1.0078250  12.0000000   1.0078250  12.0000000   1.0078250   1.0078250   1.0078250
 NucSpn=           0           0           0           1           0           1           0           1           1           1
 AtZEff=   0.0000000   0.0000000   0.0000000   0.0000000   0.0000000   0.0000000   0.0000000   0.0000000   0.0000000   0.0000000
 NQMom=    0.0000000   0.0000000   0.0000000   0.0000000   0.0000000   0.0000000   0.0000000   0.0000000   0.0000000   0.0000000
 NMagM=    0.0000000   0.0000000   0.0000000   2.7928460   0.0000000   2.7928460   0.0000000   2.7928460   2.7928460   2.7928460
 AtZNuc=   6.0000000   6.0000000   6.0000000   1.0000000   6.0000000   1.0000000   6.0000000   1.0000000   1.0000000   1.0000000

  Atom        31          32          33          34          35          36          37          38          39          40
 IAtWgt=          12          12          12          12           1          12           1          12           1           1
 AtmWgt=  12.0000000  12.0000000  12.0000000  12.0000000   1.0078250  12.0000000   1.0078250  12.0000000   1.0078250   1.0078250
 NucSpn=           0           0           0           0           1           0           1           0           1           1
 AtZEff=   0.0000000   0.0000000   0.0000000   0.0000000   0.0000000   0.0000000   0.0000000   0.0000000   0.0000000   0.0000000
 NQMom=    0.0000000   0.0000000   0.0000000   0.0000000   0.0000000   0.0000000   0.0000000   0.0000000   0.0000000   0.0000000
 NMagM=    0.0000000   0.0000000   0.0000000   0.0000000   2.7928460   0.0000000   2.7928460   0.0000000   2.7928460   2.7928460
 AtZNuc=   6.0000000   6.0000000   6.0000000   6.0000000   1.0000000   6.0000000   1.0000000   6.0000000   1.0000000   1.0000000

  Atom        41
 IAtWgt=           1
 AtmWgt=   1.0078250
 NucSpn=           1
 AtZEff=   0.0000000
 NQMom=    0.0000000
 NMagM=    2.7928460
 AtZNuc=   1.0000000
 Leave Link  101 at Thu May 23 01:59:40 2019, MaxMem=  2013265920 cpu:         1.2
 (Enter /scr/programs/g09/l202.exe)
                          Input orientation:                          
 ---------------------------------------------------------------------
 Center     Atomic      Atomic             Coordinates (Angstroms)
 Number     Number       Type             X           Y           Z
 ---------------------------------------------------------------------
      1         78           0       -0.421836   -1.386599   -0.187166
      2         17           0       -2.316129   -2.918473   -0.297269
      3         17           0        1.173303   -3.208512   -0.332566
      4         50           0       -2.333782    0.346231   -0.034563
      5         17           0       -1.847137    2.733201    0.053931
      6         17           0       -3.827614    0.236860    1.868113
      7         17           0       -3.931625    0.425819   -1.853995
      8         33           0        1.331570    0.222761    0.051622
      9          6           0        1.381890    1.543166   -1.389896
     10          6           0        2.122327    2.735736   -1.305826
     11          6           0        0.711158    1.223175   -2.581620
     12          6           0        2.148302    3.621371   -2.388452
     13          1           0        2.693259    2.985098   -0.408307
     14          6           0        0.777801    2.093225   -3.676113
     15          1           0        0.141524    0.292225   -2.656843
     16          6           0        1.483729    3.297263   -3.578362
     17          1           0        2.693550    4.566642   -2.300672
     18          1           0        0.267571    1.828619   -4.606168
     19          1           0        1.522220    3.986429   -4.426540
     20          6           0        1.162616    1.068028    1.811466
     21          6           0        1.367829    2.429965    2.072260
     22          6           0        0.807583    0.208112    2.866489
     23          6           0        1.241572    2.920375    3.376494
     24          1           0        1.607269    3.127988    1.271285
     25          6           0        0.685658    0.702695    4.168727
     26          1           0        0.609925   -0.849743    2.671482
     27          6           0        0.906010    2.059434    4.425874
     28          1           0        1.401691    3.984764    3.566196
     29          1           0        0.406982    0.024440    4.979460
     30          1           0        0.806282    2.447550    5.442577
     31          6           0        3.186510   -0.410471    0.019019
     32          6           0        3.772298   -0.690765   -1.225518
     33          6           0        3.929734   -0.583651    1.194409
     34          6           0        5.097110   -1.130081   -1.291588
     35          1           0        3.202651   -0.560199   -2.149571
     36          6           0        5.256781   -1.025795    1.122887
     37          1           0        3.486869   -0.370110    2.169873
     38          6           0        5.842069   -1.296963   -0.117845
     39          1           0        5.547428   -1.340395   -2.265554
     40          1           0        5.833893   -1.154714    2.043032
     41          1           0        6.879965   -1.636656   -0.170742
 ---------------------------------------------------------------------
                    Distance matrix (angstroms):
                    1          2          3          4          5
     1  Pt   0.000000
     2  Cl   2.438669   0.000000
     3  Cl   2.425897   3.501643   0.000000
     4  Sn   2.584865   3.275304   5.002464   0.000000
     5  Cl   4.366047   5.681964   6.676555   2.437679   0.000000
     6  Cl   4.296407   4.114559   6.459315   2.421502   3.666778
     7  Cl   4.287400   4.027097   6.448519   2.422761   3.648189
     8  As   2.391964   4.826467   3.456340   3.668444   4.050493
     9  C    3.644655   5.897067   4.872361   4.132287   3.731948
    10  C    4.971701   7.258592   6.097702   5.213708   4.195902
    11  C    3.718603   5.615690   4.991159   4.065488   3.971295
    12  C    6.044091   8.189857   7.198930   6.029628   4.766300
    13  H    5.372565   7.743284   6.377837   5.689855   4.570811
    14  C    5.071593   6.790148   6.280457   5.098512   4.605768
    15  H    3.038936   4.681477   4.326892   3.606440   4.154688
    16  C    6.088510   7.989985   7.277133   5.986693   4.960483
    17  H    7.043693   9.226996   8.163186   6.944148   5.433553
    18  H    5.508220   6.912091   6.667587   5.464804   5.196805
    19  H    7.114849   8.914117   8.285502   6.885438   5.744368
    20  C    3.539804   5.695667   4.783909   4.019156   3.862686
    21  C    4.782684   6.913176   6.132981   4.741579   3.808098
    22  C    3.657784   5.435299   4.694787   4.278242   4.618885
    23  C    5.832377   7.761824   7.164150   5.571776   4.540328
    24  H    5.160023   7.376524   6.550717   4.997529   3.683847
    25  C    4.956359   6.486039   5.983057   5.187652   5.241140
    26  H    3.086197   4.653485   3.860763   4.173541   5.072102
    27  C    5.909184   7.580885   7.103904   5.772938   5.210342
    28  H    6.801803   8.740894   8.185092   6.337046   4.945432
    29  H    5.419594   6.627212   6.265528   5.723265   6.056342
    30  H    6.921198   8.455145   8.091849   6.653917   6.013296
    31  C    3.743728   6.055506   3.464917   5.572171   5.934770
    32  C    4.376428   6.549296   3.727088   6.306976   6.703625
    33  C    4.635692   6.832811   4.101153   6.450324   6.758286
    34  C    5.634209   7.690457   4.542671   7.679698   8.059649
    35  H    4.203674   6.280877   3.799121   5.995579   6.418899
    36  C    5.838931   7.933980   4.853596   7.799923   8.107920
    37  H    4.676201   6.801156   4.435236   6.265194   6.523754
    38  C    6.264930   8.319716   5.049505   8.339758   8.683065
    39  H    6.320913   8.258329   5.134128   8.362745   8.755215
    40  H    6.645427   8.660873   5.619844   8.560383   8.835758
    41  H    7.306100   9.285861   5.921394   9.425684   9.762604
                    6          7          8          9         10
     6  Cl   0.000000
     7  Cl   3.728352   0.000000
     8  As   5.469645   5.601235   0.000000
     9  C    6.281719   5.449522   1.955499   0.000000
    10  C    7.191667   6.502810   2.963614   1.406250   0.000000
    11  C    6.432215   4.766618   2.884389   1.404451   2.430409
    12  C    8.079903   6.889318   4.262812   2.429699   1.398965
    13  H    7.433484   7.247690   3.113878   2.182286   1.092559
    14  C    7.442740   5.317805   4.207292   2.427813   2.799791
    15  H    6.019331   4.153668   2.959192   2.169911   3.423386
    16  C    8.200032   6.367471   4.759464   2.806530   2.426425
    17  H    8.868560   7.825527   5.124215   3.419265   2.160609
    18  H    7.824356   5.213017   5.040425   3.415786   3.892973
    19  H    9.072081   7.002882   5.852818   3.900056   3.415145
    20  C    5.059293   6.308671   1.959610   3.243849   3.663305
    21  C    5.643050   6.893206   2.992665   3.573952   3.474799
    22  C    4.741585   6.692567   2.863259   4.497667   5.052291
    23  C    5.930692   7.768062   4.282522   4.963352   4.768012
    24  H    6.184883   6.910025   3.162899   3.105534   2.657188
    25  C    5.087185   7.594020   4.195008   5.664752   6.013984
    26  H    4.638735   6.537024   2.921421   4.776687   5.564351
    27  C    5.680767   8.093711   4.763250   5.858001   5.898237
    28  H    6.654014   8.395762   5.148768   5.524911   5.080943
    29  H    5.259031   8.104364   5.017747   6.620096   7.056795
    30  H    6.255952   8.931692   5.855596   6.916063   6.881567
    31  C    7.282590   7.407794   1.960318   3.009716   3.575796
    32  C    8.257706   7.809749   2.902201   3.275900   3.803914
    33  C    7.829659   8.491923   2.950715   4.206363   4.531691
    34  C    9.565717   9.179062   4.220626   4.578075   4.877917
    35  H    8.136444   7.208154   2.993196   2.883821   3.569621
    36  C    9.201950   9.767078   4.256029   5.284735   5.465580
    37  H    7.345824   8.476973   3.079577   4.556700   4.856824
    38  C    9.989966  10.075083   4.762655   5.438533   5.613416
    39  H   10.366598   9.650976   5.058282   5.141343   5.409920
    40  H    9.762776  10.632509   5.112149   6.235694   6.334522
    41  H   11.059803  11.134524   5.855900   6.467336   6.560590
                   11         12         13         14         15
    11  C    0.000000
    12  C    2.802506   0.000000
    13  H    3.428759   2.150069   0.000000
    14  C    1.399765   2.423133   3.891397   0.000000
    15  H    1.093988   3.896461   4.338068   2.165031   0.000000
    16  C    2.427386   1.400924   3.407295   1.399142   3.417743
    17  H    3.897125   1.094778   2.466237   3.417561   4.991025
    18  H    2.159196   3.416046   4.984320   1.093322   2.485209
    19  H    3.420106   2.163111   4.303509   2.168299   4.322649
    20  C    4.418947   5.013028   3.308386   5.595769   4.648686
    21  C    4.852438   4.682578   2.866732   5.788378   5.332745
    22  C    5.542702   6.407985   4.689532   6.808831   5.563983
    23  C    6.217793   5.877768   4.054171   7.116075   6.672214
    24  H    4.390467   3.732267   2.005199   5.122060   5.061635
    25  C    6.770431   7.324930   5.494458   7.967658   6.859517
    26  H    5.648214   6.925344   5.341478   6.998657   5.469418
    27  C    7.059906   7.100562   5.236451   8.103072   7.339778
    28  H    6.774869   6.012264   4.296994   7.511205   7.345004
    29  H    7.661555   8.381899   6.559008   8.907094   7.645607
    30  H    8.117628   8.031431   6.171101   9.125616   8.407612
    31  C    3.944552   4.809318   3.457715   5.071920   4.114117
    32  C    3.856521   4.752294   3.917158   4.766868   4.024609
    33  C    5.280364   5.804533   4.102870   6.389236   5.472644
    34  C    5.141845   5.698673   4.846997   5.893394   5.333358
    35  H    3.094289   4.319056   3.982538   3.905238   3.217833
    36  C    6.280440   6.602143   5.000346   7.267733   6.495336
    37  H    5.728858   6.204999   4.305142   6.898016   5.909925
    38  C    6.224751   6.556644   5.323102   7.057015   6.439584
    39  H    5.482818   6.015670   5.505046   6.043903   5.660597
    40  H    7.299601   7.485494   5.745493   8.295890   7.522335
    41  H    7.214232   7.413078   6.240637   7.964675   7.436926
                   16         17         18         19         20
    16  C    0.000000
    17  H    2.169673   0.000000
    18  H    2.166181   4.324055   0.000000
    19  H    1.093543   2.495591   2.502510   0.000000
    20  C    5.841477   5.611928   6.524234   6.896310   0.000000
    21  C    5.717969   5.044349   6.795115   6.684371   1.401784
    22  C    7.178867   7.018063   7.665394   8.244674   1.406619
    23  C    6.969269   6.086760   8.115633   7.880519   2.426260
    24  H    4.854173   4.001076   6.166653   5.762757   2.175534
    25  C    8.208903   7.798387   8.856708   9.239121   2.432619
    26  H    7.551274   7.642057   7.762411   8.637289   2.173233
    27  C    8.119961   7.397825   9.057520   9.080653   2.807822
    28  H    7.178029   6.035530   8.527762   7.993645   3.412269
    29  H    9.225349   8.880333   9.754935  10.267130   3.419977
    30  H    9.086159   8.246832  10.082190  10.014000   3.900644
    31  C    5.439477   5.513223   5.909829   6.470362   3.081391
    32  C    5.165055   5.473571   5.482627   6.097994   4.373450
    33  C    6.619953   6.345806   7.271670   7.633926   3.281119
    34  C    6.155261   6.264823   6.562377   6.984729   5.471825
    35  H    4.458268   5.154271   4.511764   5.355396   4.743699
    36  C    7.417984   7.040331   8.115539   8.358557   4.649777
    37  H    7.106645   6.707209   7.817482   8.145670   2.756601
    38  C    7.216455   7.004268   7.809567   8.070947   5.586833
    39  H    6.304362   6.560407   6.587717   7.017636   6.453617
    40  H    8.387139   7.839862   9.170391   9.320796   5.178323
    41  H    8.066895   7.780975   8.683599   8.856429   6.628163
                   21         22         23         24         25
    21  C    0.000000
    22  C    2.425140   0.000000
    23  C    1.399096   2.793711   0.000000
    24  H    1.089095   3.421966   2.146798   0.000000
    25  C    2.800713   1.398321   2.419665   3.889291   0.000000
    26  H    3.419060   1.093688   3.887134   4.333312   2.158134
    27  C    2.426946   2.422553   1.398220   3.403675   1.398363
    28  H    2.156477   3.886599   1.092954   2.458240   3.412876
    29  H    3.893789   2.158440   3.413573   4.982295   1.093151
    30  H    3.416823   3.413402   2.163733   4.301657   2.163738
    31  C    3.948604   3.761652   5.113703   4.072206   4.971265
    32  C    5.137681   5.132449   6.373650   5.050173   6.369219
    33  C    4.051649   3.629128   4.926044   4.379043   4.585333
    34  C    6.156049   6.122124   7.284391   6.072764   7.254999
    35  H    5.489218   5.611373   6.818916   5.277331   6.917445
    36  C    5.288434   4.935386   6.064067   5.531263   5.758471
    37  H    3.512873   2.828107   4.162281   4.071492   3.604596
    38  C    6.221364   6.042975   7.152686   6.280398   6.997278
    39  H    7.106426   7.155548   8.278120   6.928241   8.319315
    40  H    5.726823   5.272492   6.282824   6.066422   5.871360
    41  H    7.207781   7.035749   8.070991   7.251386   7.916628
                   26         27         28         29         30
    26  H    0.000000
    27  C    3.410113   0.000000
    28  H    4.979946   2.166020   0.000000
    29  H    2.476317   2.167184   4.320987   0.000000
    30  H    4.311573   1.092824   2.497668   2.499076   0.000000
    31  C    3.723884   5.542696   5.923355   5.702710   6.576378
    32  C    5.021204   6.907781   7.102174   7.094972   7.944165
    33  C    3.643306   5.154723   5.734701   5.206358   6.082028
    34  C    5.993275   7.773525   7.963405   7.915571   8.749836
    35  H    5.481662   7.441338   7.521312   7.679886   8.510573
    36  C    4.901266   6.273561   6.777697   6.284640   7.108501
    37  H    2.959471   4.201554   5.026193   4.187500   5.082848
    38  C    5.946064   7.501697   7.822132   7.567615   8.384439
    39  H    6.999571   8.824784   8.919292   8.987613   9.810315
    40  H    5.270465   6.347654   6.955478   6.282068   7.057626
    41  H    6.928988   8.395123   8.693478   8.437021   9.223867
                   31         32         33         34         35
    31  C    0.000000
    32  C    1.403775   0.000000
    33  C    1.401397   2.427407   0.000000
    34  C    2.426092   1.397316   2.800274   0.000000
    35  H    2.173813   1.093352   3.422193   2.156357   0.000000
    36  C    2.425525   2.798382   1.400593   2.421995   3.891685
    37  H    2.172100   3.422422   1.092364   3.892576   4.332956
    38  C    2.802962   2.424534   2.426489   1.400174   3.411343
    39  H    3.414376   2.157494   3.893705   1.093448   2.473891
    40  H    3.414552   3.892151   2.161503   3.415135   4.985459
    41  H    3.896299   3.415385   3.417063   2.165984   4.312443
                   36         37         38         39         40
    36  C    0.000000
    37  H    2.158400   0.000000
    38  C    1.398396   3.411697   0.000000
    39  H    3.415404   4.986017   2.168261   0.000000
    40  H    1.093776   2.477945   2.165569   4.322089   0.000000
    41  H    2.163644   4.312275   1.093352   2.500333   2.495462
                   41
    41  H    0.000000
 Stoichiometry    C18H15AsCl5PtSn(1-)
 Framework group  C1[X(C18H15AsCl5PtSn)]
 Deg. of freedom   117
 Full point group                 C1      NOp   1
 Largest Abelian subgroup         C1      NOp   1
 Largest concise Abelian subgroup C1      NOp   1
                         Standard orientation:                         
 ---------------------------------------------------------------------
 Center     Atomic      Atomic             Coordinates (Angstroms)
 Number     Number       Type             X           Y           Z
 ---------------------------------------------------------------------
      1         78           0       -0.421836   -1.386599   -0.187166
      2         17           0       -2.316129   -2.918473   -0.297269
      3         17           0        1.173303   -3.208512   -0.332566
      4         50           0       -2.333782    0.346231   -0.034563
      5         17           0       -1.847137    2.733201    0.053931
      6         17           0       -3.827614    0.236860    1.868113
      7         17           0       -3.931625    0.425819   -1.853995
      8         33           0        1.331570    0.222761    0.051622
      9          6           0        1.381890    1.543166   -1.389896
     10          6           0        2.122327    2.735736   -1.305826
     11          6           0        0.711158    1.223175   -2.581620
     12          6           0        2.148302    3.621371   -2.388452
     13          1           0        2.693259    2.985098   -0.408307
     14          6           0        0.777801    2.093225   -3.676113
     15          1           0        0.141524    0.292225   -2.656843
     16          6           0        1.483729    3.297263   -3.578362
     17          1           0        2.693550    4.566642   -2.300672
     18          1           0        0.267571    1.828619   -4.606168
     19          1           0        1.522220    3.986429   -4.426540
     20          6           0        1.162616    1.068028    1.811466
     21          6           0        1.367829    2.429965    2.072260
     22          6           0        0.807583    0.208112    2.866489
     23          6           0        1.241572    2.920375    3.376494
     24          1           0        1.607269    3.127988    1.271285
     25          6           0        0.685658    0.702695    4.168727
     26          1           0        0.609925   -0.849743    2.671482
     27          6           0        0.906010    2.059434    4.425874
     28          1           0        1.401691    3.984764    3.566196
     29          1           0        0.406982    0.024440    4.979460
     30          1           0        0.806282    2.447550    5.442577
     31          6           0        3.186510   -0.410471    0.019019
     32          6           0        3.772298   -0.690765   -1.225518
     33          6           0        3.929734   -0.583651    1.194409
     34          6           0        5.097110   -1.130081   -1.291588
     35          1           0        3.202651   -0.560199   -2.149571
     36          6           0        5.256781   -1.025795    1.122887
     37          1           0        3.486869   -0.370110    2.169873
     38          6           0        5.842069   -1.296963   -0.117845
     39          1           0        5.547428   -1.340395   -2.265554
     40          1           0        5.833893   -1.154714    2.043032
     41          1           0        6.879965   -1.636656   -0.170742
 ---------------------------------------------------------------------
 Rotational constants (GHZ):      0.1283489      0.0856382      0.0797978
 Leave Link  202 at Thu May 23 01:59:40 2019, MaxMem=  2013265920 cpu:         0.0
 (Enter /scr/programs/g09/l301.exe)
 General basis read from cards:  (5D, 7F)
 Centers:      13     15     17     18     19     24     26     28     29     30
 Centers:      35     37     39     40     41
 S 5 1.00
     Exponent=  2.8295215633D+02 Coefficients=  4.3000000000D-04
     Exponent=  8.7062201949D+01 Coefficients=  5.1000000000D-04
     Exponent=  2.6788369830D+01 Coefficients=  6.1600000000D-03
     Exponent=  8.2425753324D+00 Coefficients=  1.3030000000D-02
     Exponent=  2.5361770254D+00 Coefficients=  9.9490000000D-02
 S 1 1.00
     Exponent=  7.8036216165D-01 Coefficients=  1.0000000000D+00
 S 1 1.00
     Exponent=  2.4011143435D-01 Coefficients=  1.0000000000D+00
 P 1 1.00
     Exponent=  8.8150000000D-01 Coefficients=  1.0000000000D+00
 P 1 1.00
     Exponent=  1.7989200000D-01 Coefficients=  1.0000000000D+00
 ****
 Centers:       9     10     11     12     14     16     20     21     22     23
 Centers:      25     27     31     32     33     34     36     38
 S 6 1.00
     Exponent=  8.8461235339D+03 Coefficients=  5.3000000000D-04
     Exponent=  2.9487078446D+03 Coefficients=  7.7000000000D-04
     Exponent=  9.8290261488D+02 Coefficients=  4.0500000000D-03
     Exponent=  3.2763420496D+02 Coefficients=  1.4030000000D-02
     Exponent=  1.0921140165D+02 Coefficients=  5.3450000000D-02
     Exponent=  3.6403800551D+01 Coefficients=  1.7027000000D-01
 S 1 1.00
     Exponent=  1.2134600184D+01 Coefficients=  1.0000000000D+00
 S 1 1.00
     Exponent=  4.0448667279D+00 Coefficients=  1.0000000000D+00
 S 1 1.00
     Exponent=  1.3482889093D+00 Coefficients=  1.0000000000D+00
 S 1 1.00
     Exponent=  4.4942963643D-01 Coefficients=  1.0000000000D+00
 S 1 1.00
     Exponent=  1.4980987881D-01 Coefficients=  1.0000000000D+00
 P 4 1.00
     Exponent=  3.7294093393D+01 Coefficients=  3.9600000000D-03
     Exponent=  1.1475105659D+01 Coefficients=  1.8890000000D-02
     Exponent=  3.5308017414D+00 Coefficients=  9.4610000000D-02
     Exponent=  1.0864005358D+00 Coefficients=  3.1889000000D-01
 P 1 1.00
     Exponent=  3.3427708794D-01 Coefficients=  1.0000000000D+00
 P 1 1.00
     Exponent=  1.0285448860D-01 Coefficients=  1.0000000000D+00
 D 1 1.00
     Exponent=  4.7750000000D-01 Coefficients=  1.0000000000D+00
 D 1 1.00
     Exponent=  1.1998000000D-01 Coefficients=  1.0000000000D+00
 ****
 Centers:       2      3      5      6      7
 S 7 1.00
     Exponent=  7.7142817164D+04 Coefficients=  1.0600000000D-03
     Exponent=  2.8051933514D+04 Coefficients=  6.4000000000D-04
     Exponent=  1.0200703096D+04 Coefficients=  3.9600000000D-03
     Exponent=  3.7093465804D+03 Coefficients=  9.8300000000D-03
     Exponent=  1.3488533020D+03 Coefficients=  3.2690000000D-02
     Exponent=  4.9049210981D+02 Coefficients=  9.9520000000D-02
     Exponent=  1.7836076720D+02 Coefficients=  2.6555000000D-01
 S 1 1.00
     Exponent=  6.4858460801D+01 Coefficients=  1.0000000000D+00
 S 1 1.00
     Exponent=  2.3584894837D+01 Coefficients=  1.0000000000D+00
 S 1 1.00
     Exponent=  8.5763253951D+00 Coefficients=  1.0000000000D+00
 S 1 1.00
     Exponent=  3.1186637801D+00 Coefficients=  1.0000000000D+00
 S 1 1.00
     Exponent=  1.1340595564D+00 Coefficients=  1.0000000000D+00
 S 1 1.00
     Exponent=  4.1238529323D-01 Coefficients=  1.0000000000D+00
 S 1 1.00
     Exponent=  1.4995828845D-01 Coefficients=  1.0000000000D+00
 S 1 1.00
     Exponent=  5.4530286708D-02 Coefficients=  1.0000000000D+00
 P 5 1.00
     Exponent=  6.9498536057D+02 Coefficients=  2.0000000000D-03
     Exponent=  2.3166178686D+02 Coefficients=  8.9500000000D-03
     Exponent=  7.7220595619D+01 Coefficients=  5.1130000000D-02
     Exponent=  2.5740198540D+01 Coefficients=  2.1011000000D-01
     Exponent=  8.5800661799D+00 Coefficients=  4.9738000000D-01
 P 1 1.00
     Exponent=  2.8600220600D+00 Coefficients=  1.0000000000D+00
 P 1 1.00
     Exponent=  9.5334068665D-01 Coefficients=  1.0000000000D+00
 P 1 1.00
     Exponent=  3.1778022888D-01 Coefficients=  1.0000000000D+00
 P 1 1.00
     Exponent=  1.0592674296D-01 Coefficients=  1.0000000000D+00
 P 1 1.00
     Exponent=  3.5308914320D-02 Coefficients=  1.0000000000D+00
 D 1 1.00
     Exponent=  5.5696000000D-01 Coefficients=  1.0000000000D+00
 D 1 1.00
     Exponent=  1.5619100000D-01 Coefficients=  1.0000000000D+00
 ****
 Centers:       8
 S 7 1.00
     Exponent=  3.0782645635D+05 Coefficients=  2.2400000000D-03
     Exponent=  1.2313058254D+05 Coefficients=  1.3000000000D-04
     Exponent=  4.9252233016D+04 Coefficients=  5.5100000000D-03
     Exponent=  1.9700893206D+04 Coefficients=  7.9300000000D-03
     Exponent=  7.8803572826D+03 Coefficients=  2.3410000000D-02
     Exponent=  3.1521429130D+03 Coefficients=  5.6580000000D-02
     Exponent=  1.2608571652D+03 Coefficients=  1.4418000000D-01
 S 1 1.00
     Exponent=  5.0434286609D+02 Coefficients=  1.0000000000D+00
 S 1 1.00
     Exponent=  2.0173714643D+02 Coefficients=  1.0000000000D+00
 S 1 1.00
     Exponent=  8.0694858574D+01 Coefficients=  1.0000000000D+00
 S 1 1.00
     Exponent=  3.2277943429D+01 Coefficients=  1.0000000000D+00
 S 1 1.00
     Exponent=  1.2911177372D+01 Coefficients=  1.0000000000D+00
 S 1 1.00
     Exponent=  5.1644709487D+00 Coefficients=  1.0000000000D+00
 S 1 1.00
     Exponent=  2.0657883795D+00 Coefficients=  1.0000000000D+00
 S 1 1.00
     Exponent=  8.2631535179D-01 Coefficients=  1.0000000000D+00
 S 1 1.00
     Exponent=  3.3052614072D-01 Coefficients=  1.0000000000D+00
 S 1 1.00
     Exponent=  1.3221045629D-01 Coefficients=  1.0000000000D+00
 S 1 1.00
     Exponent=  5.2884182515D-02 Coefficients=  1.0000000000D+00
 P 5 1.00
     Exponent=  3.7107657199D+03 Coefficients=  2.0300000000D-03
     Exponent=  1.3493693527D+03 Coefficients=  5.5800000000D-03
     Exponent=  4.9067976461D+02 Coefficients=  3.0440000000D-02
     Exponent=  1.7842900531D+02 Coefficients=  1.2317000000D-01
     Exponent=  6.4883274660D+01 Coefficients=  3.7966000000D-01
 P 1 1.00
     Exponent=  2.3593918058D+01 Coefficients=  1.0000000000D+00
 P 1 1.00
     Exponent=  8.5796065666D+00 Coefficients=  1.0000000000D+00
 P 1 1.00
     Exponent=  3.1198569333D+00 Coefficients=  1.0000000000D+00
 P 1 1.00
     Exponent=  1.1344934303D+00 Coefficients=  1.0000000000D+00
 P 1 1.00
     Exponent=  4.1254306556D-01 Coefficients=  1.0000000000D+00
 P 1 1.00
     Exponent=  1.5001566020D-01 Coefficients=  1.0000000000D+00
 P 1 1.00
     Exponent=  5.4551149165D-02 Coefficients=  1.0000000000D+00
 P 1 1.00
     Exponent=  1.9836781515D-02 Coefficients=  1.0000000000D+00
 D 4 1.00
     Exponent=  1.2073850248D+02 Coefficients=  8.2200000000D-03
     Exponent=  4.0246167494D+01 Coefficients=  4.8990000000D-02
     Exponent=  1.3415389165D+01 Coefficients=  2.0377000000D-01
     Exponent=  4.4717963882D+00 Coefficients=  3.7159000000D-01
 D 1 1.00
     Exponent=  1.4905987961D+00 Coefficients=  1.0000000000D+00
 D 1 1.00
     Exponent=  4.9686626535D-01 Coefficients=  1.0000000000D+00
 F 1 1.00
     Exponent=  1.2030000000D+00 Coefficients=  1.0000000000D+00
 F 1 1.00
     Exponent=  5.2800000000D-01 Coefficients=  1.0000000000D+00
 ****
 Centers:       4
 S 8 1.00
     Exponent=  7.5448214551D+05 Coefficients=  4.4300000000D-03
     Exponent=  3.3532539800D+05 Coefficients=  1.9800000000D-03
     Exponent=  1.4903351022D+05 Coefficients=  9.0500000000D-03
     Exponent=  6.6237115655D+04 Coefficients=  4.8700000000D-03
     Exponent=  2.9438718069D+04 Coefficients=  2.0770000000D-02
     Exponent=  1.3083874697D+04 Coefficients=  3.2900000000D-02
     Exponent=  5.8150554210D+03 Coefficients=  7.7010000000D-02
     Exponent=  2.5844690760D+03 Coefficients=  1.5160000000D-01
 S 1 1.00
     Exponent=  1.1486529227D+03 Coefficients=  1.0000000000D+00
 S 1 1.00
     Exponent=  5.1051241008D+02 Coefficients=  1.0000000000D+00
 S 1 1.00
     Exponent=  2.2689440448D+02 Coefficients=  1.0000000000D+00
 S 1 1.00
     Exponent=  1.0084195755D+02 Coefficients=  1.0000000000D+00
 S 1 1.00
     Exponent=  4.4818647798D+01 Coefficients=  1.0000000000D+00
 S 1 1.00
     Exponent=  1.9919399021D+01 Coefficients=  1.0000000000D+00
 S 1 1.00
     Exponent=  8.8530662317D+00 Coefficients=  1.0000000000D+00
 S 1 1.00
     Exponent=  3.9346961030D+00 Coefficients=  1.0000000000D+00
 S 1 1.00
     Exponent=  1.7487538235D+00 Coefficients=  1.0000000000D+00
 S 1 1.00
     Exponent=  7.7722392158D-01 Coefficients=  1.0000000000D+00
 S 1 1.00
     Exponent=  3.4543285403D-01 Coefficients=  1.0000000000D+00
 S 1 1.00
     Exponent=  1.5352571290D-01 Coefficients=  1.0000000000D+00
 S 1 1.00
     Exponent=  6.8233650180D-02 Coefficients=  1.0000000000D+00
 S 1 1.00
     Exponent=  1.3478251887D-02 Coefficients=  1.0000000000D+00
 P 5 1.00
     Exponent=  1.0090658304D+04 Coefficients=  2.7500000000D-03
     Exponent=  4.0362633217D+03 Coefficients=  4.1800000000D-03
     Exponent=  1.6145053287D+03 Coefficients=  2.0890000000D-02
     Exponent=  6.4580213147D+02 Coefficients=  7.1370000000D-02
     Exponent=  2.5832085259D+02 Coefficients=  2.2613000000D-01
 P 1 1.00
     Exponent=  1.0332834104D+02 Coefficients=  1.0000000000D+00
 P 1 1.00
     Exponent=  4.1331336414D+01 Coefficients=  1.0000000000D+00
 P 1 1.00
     Exponent=  1.6532534566D+01 Coefficients=  1.0000000000D+00
 P 1 1.00
     Exponent=  6.6130138263D+00 Coefficients=  1.0000000000D+00
 P 1 1.00
     Exponent=  2.6452055305D+00 Coefficients=  1.0000000000D+00
 P 1 1.00
     Exponent=  1.0580822122D+00 Coefficients=  1.0000000000D+00
 P 1 1.00
     Exponent=  4.2323288488D-01 Coefficients=  1.0000000000D+00
 P 1 1.00
     Exponent=  1.6929315395D-01 Coefficients=  1.0000000000D+00
 P 1 1.00
     Exponent=  6.7717261581D-02 Coefficients=  1.0000000000D+00
 P 1 1.00
     Exponent=  2.7086904632D-02 Coefficients=  1.0000000000D+00
 P 1 1.00
     Exponent=  1.0834761853D-02 Coefficients=  1.0000000000D+00
 D 4 1.00
     Exponent=  5.5430250651D+02 Coefficients=  4.3700000000D-03
     Exponent=  2.0156454782D+02 Coefficients=  2.5110000000D-02
     Exponent=  7.3296199207D+01 Coefficients=  1.3316000000D-01
     Exponent=  2.6653163348D+01 Coefficients=  3.8900000000D-01
 D 1 1.00
     Exponent=  9.6920593993D+00 Coefficients=  1.0000000000D+00
 D 1 1.00
     Exponent=  3.5243852361D+00 Coefficients=  1.0000000000D+00
 D 1 1.00
     Exponent=  1.2815946313D+00 Coefficients=  1.0000000000D+00
 D 1 1.00
     Exponent=  4.6603441139D-01 Coefficients=  1.0000000000D+00
 D 1 1.00
     Exponent=  1.6946705869D-01 Coefficients=  1.0000000000D+00
 F 1 1.00
     Exponent=  1.3140000000D+00 Coefficients=  1.0000000000D+00
 F 1 1.00
     Exponent=  1.9993000000D-01 Coefficients=  1.0000000000D+00
 ****
 Centers:       1
 S 9 1.00
     Exponent=  2.1644816090D+06 Coefficients=  1.2320000000D-02
     Exponent=  1.0822408045D+06 Coefficients=  1.2970000000D-02
     Exponent=  5.4112040224D+05 Coefficients=  2.6370000000D-02
     Exponent=  2.7056020112D+05 Coefficients=  9.0400000000D-03
     Exponent=  1.3528010056D+05 Coefficients=  3.4980000000D-02
     Exponent=  6.7640050280D+04 Coefficients=  1.2220000000D-02
     Exponent=  3.3820025140D+04 Coefficients=  6.0520000000D-02
     Exponent=  1.6910012570D+04 Coefficients=  6.4930000000D-02
     Exponent=  8.4550062850D+03 Coefficients=  1.3819000000D-01
 S 1 1.00
     Exponent=  4.2275031425D+03 Coefficients=  1.0000000000D+00
 S 1 1.00
     Exponent=  2.1137515713D+03 Coefficients=  1.0000000000D+00
 S 1 1.00
     Exponent=  1.0568757856D+03 Coefficients=  1.0000000000D+00
 S 1 1.00
     Exponent=  5.2843789281D+02 Coefficients=  1.0000000000D+00
 S 1 1.00
     Exponent=  2.6421894641D+02 Coefficients=  1.0000000000D+00
 S 1 1.00
     Exponent=  1.3210947320D+02 Coefficients=  1.0000000000D+00
 S 1 1.00
     Exponent=  6.6054736602D+01 Coefficients=  1.0000000000D+00
 S 1 1.00
     Exponent=  3.3027368301D+01 Coefficients=  1.0000000000D+00
 S 1 1.00
     Exponent=  1.6513684150D+01 Coefficients=  1.0000000000D+00
 S 1 1.00
     Exponent=  8.2568420752D+00 Coefficients=  1.0000000000D+00
 S 1 1.00
     Exponent=  4.1284210376D+00 Coefficients=  1.0000000000D+00
 S 1 1.00
     Exponent=  2.0642105188D+00 Coefficients=  1.0000000000D+00
 S 1 1.00
     Exponent=  1.0321052594D+00 Coefficients=  1.0000000000D+00
 S 1 1.00
     Exponent=  5.1605262970D-01 Coefficients=  1.0000000000D+00
 S 1 1.00
     Exponent=  2.5802631485D-01 Coefficients=  1.0000000000D+00
 S 1 1.00
     Exponent=  1.2901315743D-01 Coefficients=  1.0000000000D+00
 S 1 1.00
     Exponent=  6.4506578713D-02 Coefficients=  1.0000000000D+00
 P 7 1.00
     Exponent=  3.2357915258D+04 Coefficients=  5.0200000000D-03
     Exponent=  1.4381295670D+04 Coefficients=  2.0200000000D-03
     Exponent=  6.3916869645D+03 Coefficients=  1.8070000000D-02
     Exponent=  2.8407497620D+03 Coefficients=  3.6620000000D-02
     Exponent=  1.2625554498D+03 Coefficients=  1.1172000000D-01
     Exponent=  5.6113575545D+02 Coefficients=  2.5586000000D-01
     Exponent=  2.4939366909D+02 Coefficients=  4.2608000000D-01
 P 1 1.00
     Exponent=  1.1084163071D+02 Coefficients=  1.0000000000D+00
 P 1 1.00
     Exponent=  4.9262946981D+01 Coefficients=  1.0000000000D+00
 P 1 1.00
     Exponent=  2.1894643103D+01 Coefficients=  1.0000000000D+00
 P 1 1.00
     Exponent=  9.7309524900D+00 Coefficients=  1.0000000000D+00
 P 1 1.00
     Exponent=  4.3248677733D+00 Coefficients=  1.0000000000D+00
 P 1 1.00
     Exponent=  1.9221634548D+00 Coefficients=  1.0000000000D+00
 P 1 1.00
     Exponent=  8.5429486881D-01 Coefficients=  1.0000000000D+00
 P 1 1.00
     Exponent=  3.7968660836D-01 Coefficients=  1.0000000000D+00
 P 1 1.00
     Exponent=  1.6874960372D-01 Coefficients=  1.0000000000D+00
 P 1 1.00
     Exponent=  7.4999823874D-02 Coefficients=  1.0000000000D+00
 P 1 1.00
     Exponent=  3.3333255055D-02 Coefficients=  1.0000000000D+00
 D 5 1.00
     Exponent=  1.9119003508D+03 Coefficients=  4.3300000000D-03
     Exponent=  7.6476014031D+02 Coefficients=  1.7780000000D-02
     Exponent=  3.0590405613D+02 Coefficients=  8.9710000000D-02
     Exponent=  1.2236162245D+02 Coefficients=  3.1123000000D-01
     Exponent=  4.8944648980D+01 Coefficients=  5.3206000000D-01
 D 1 1.00
     Exponent=  1.9577859592D+01 Coefficients=  1.0000000000D+00
 D 1 1.00
     Exponent=  7.8311438368D+00 Coefficients=  1.0000000000D+00
 D 1 1.00
     Exponent=  3.1324575347D+00 Coefficients=  1.0000000000D+00
 D 1 1.00
     Exponent=  1.2529830139D+00 Coefficients=  1.0000000000D+00
 D 1 1.00
     Exponent=  5.0119320556D-01 Coefficients=  1.0000000000D+00
 D 1 1.00
     Exponent=  2.0047728222D-01 Coefficients=  1.0000000000D+00
 D 1 1.00
     Exponent=  8.0190912889D-02 Coefficients=  1.0000000000D+00
 D 1 1.00
     Exponent=  3.2076365156D-02 Coefficients=  1.0000000000D+00
 F 4 1.00
     Exponent=  8.2289680979D+01 Coefficients=  6.1870000000D-02
     Exponent=  2.9923520356D+01 Coefficients=  2.4823000000D-01
     Exponent=  1.0881280130D+01 Coefficients=  4.9956000000D-01
     Exponent=  3.9568291380D+00 Coefficients=  4.0380000000D-01
 F 1 1.00
     Exponent=  1.4388469593D+00 Coefficients=  1.0000000000D+00
 F 1 1.00
     Exponent=  5.2321707610D-01 Coefficients=  1.0000000000D+00
 G 1 1.00
     Exponent=  2.6700000000D+00 Coefficients=  1.0000000000D+00
 G 1 1.00
     Exponent=  9.0960000000D-01 Coefficients=  1.0000000000D+00
 ****
 Ernie: Thresh=  0.10000D-02 Tol=  0.10000D-05 Strict=F.
 There are  1168 symmetry adapted cartesian basis functions of A   symmetry.
 There are  1071 symmetry adapted basis functions of A   symmetry.
  1071 basis functions,  1723 primitive gaussians,  1168 cartesian basis functions
   185 alpha electrons      185 beta electrons
       nuclear repulsion energy      8410.1800177621 Hartrees.
 IExCor= 1009 DFT=T Ex=PBE Corr=PBE ExCW=0 ScaHFX=  0.000000
 ScaDFX=  1.000000  1.000000  1.000000  1.000000 ScalE2=  1.000000  1.000000
 IRadAn=      0 IRanWt=     -1 IRanGd=            0 ICorTp=0 IEmpDi=  4
 NAtoms=   41 NActive=   41 NUniq=   41 SFac= 1.00D+00 NAtFMM=   60 NAOKFM=F Big=F
 Integral buffers will be    131072 words long.
 Raffenetti 2 integral format.
 Two-electron integral symmetry is turned on.
 ------------------------------------------------------------------------------
 Polarizable Continuum Model (PCM)
 =================================
 Model                : PCM (using non-symmetric T matrix).
 Atomic radii         : UFF (Universal Force Field).
 Polarization charges : Total charges.
 Charge compensation  : None.
 Solution method      : On-the-fly selection.
 Cavity type          : Scaled VdW (van der Waals Surface) (Alpha=1.100).
 Cavity algorithm     : GePol (No added spheres)
                        Default sphere list used, NSphG=   41.
                        Lebedev-Laikov grids with approx.  5.0 points / Ang**2.
                        Smoothing algorithm: Karplus/York (Gamma=1.0000).
                        Polarization charges: spherical gaussians, with
                                              point-specific exponents (IZeta= 3).
                        Self-potential: point-specific (ISelfS= 7).
                        Self-field    : sphere-specific E.n sum rule (ISelfD= 2).
 Solvent              : Dichloromethane, Eps=   8.930000 Eps(inf)=   2.028346
 ------------------------------------------------------------------------------
 GePol: Number of generator spheres                  =      41
 GePol: Total number of spheres                      =      41
 GePol: Number of exposed spheres                    =      41 (100.00%)
 GePol: Number of points                             =    3740
 GePol: Average weight of points                     =       0.14
 GePol: Minimum weight of points                     =   0.17D-10
 GePol: Maximum weight of points                     =    0.21838
 GePol: Number of points with low weight             =     233
 GePol: Fraction of low-weight points (<1% of avg)   =       6.23%
 GePol: Cavity surface area                          =    530.797 Ang**2
 GePol: Cavity volume                                =    598.282 Ang**3
 Leave Link  301 at Thu May 23 01:59:40 2019, MaxMem=  2013265920 cpu:         1.6
 (Enter /scr/programs/g09/l302.exe)
 NPDir=0 NMtPBC=     1 NCelOv=     1 NCel=       1 NClECP=     1 NCelD=      1
         NCelK=      1 NCelE2=     1 NClLst=     1 CellRange=     0.0.
 One-electron integrals computed using PRISM.
 NBasis=  1071 RedAO= T EigKep=  1.77D-06  NBF=  1071
 NBsUse=  1071 1.00D-06 EigRej= -1.00D+00 NBFU=  1071
 Precomputing XC quadrature grid using
 IXCGrd= 4 IRadAn=           0 IRanWt=          -1 IRanGd=           0 AccXCQ= 0.00D+00.
 Defaulting to unpruned grid for atomic number  78.
 Generated NRdTot=       0 NPtTot=           0 NUsed=           0 NTot=          32
 NSgBfM=  1055  1060  1064  1065  1066 MxSgAt=    41 MxSgA2=    41.
 Leave Link  302 at Thu May 23 01:59:45 2019, MaxMem=  2013265920 cpu:        36.0
 (Enter /scr/programs/g09/l308.exe)
 Leave Link  308 at Thu May 23 01:59:45 2019, MaxMem=  2013265920 cpu:         4.5
 (Enter /scr/programs/g09/l303.exe)
 DipDrv:  MaxL=1.
 Leave Link  303 at Thu May 23 01:59:46 2019, MaxMem=  2013265920 cpu:         2.8
 (Enter /scr/programs/g09/l401.exe)
 ExpMin= 1.08D-02 ExpMax= 2.16D+06 ExpMxC= 2.16D+06 IAcc=4 IRadAn=    199590 AccDes= 0.00D+00
 Harris functional with IExCor= 1009 and IRadAn=  199590 diagonalized for initial guess.
 HarFok:  IExCor= 1009 AccDes= 0.00D+00 IRadAn=    199590 IDoV= 1 UseB2=F ITyADJ=14
 ICtDFT=  3500011 ScaDFX=  1.000000  1.000000  1.000000  1.000000
 FoFCou: FMM=F IPFlag=           0 FMFlag=      100000 FMFlg1=           0
         NFxFlg=           0 DoJE=T BraDBF=F KetDBF=T FulRan=T
         wScrn=  0.000000 ICntrl=     500 IOpCl=  0 I1Cent=   200000004 NGrid=           0
         NMat0=    1 NMatS0=      1 NMatT0=    0 NMatD0=    1 NMtDS0=    0 NMtDT0=    0
 Petite list used in FoFCou.
 Harris En= -28330.5241174767    
 JPrj=0 DoOrth=F DoCkMO=F.
 Leave Link  401 at Thu May 23 02:01:18 2019, MaxMem=  2013265920 cpu:       732.8
 (Enter /scr/programs/g09/l502.exe)
 Closed shell SCF:
 Using DIIS extrapolation, IDIIS=  1040.
 Integral symmetry usage will be decided dynamically.
 IVT=     4364666 IEndB=     4364666 NGot=  2013265920 MDV=  2010517647
 LenX=  2010517647 LenY=  2009152255
 Requested convergence on RMS density matrix=1.00D-04 within 500 cycles.
 Requested convergence on MAX density matrix=1.00D-02.
 Requested convergence on             energy=1.00D-02.
 No special actions if energy rises.
 Fock matrices will be formed incrementally for  20 cycles.

 Cycle   1  Pass 1  IDiag  1:
 FoFJK:  IHMeth= 1 ICntrl=     500 DoSepK=F KAlg= 0 I1Cent=   0 FoldK=F
 IRaf= 690000000 NMat=   1 IRICut=       1 DoRegI=T DoRafI=F ISym2E= 0.
 FoFCou: FMM=F IPFlag=           0 FMFlag=      100000 FMFlg1=           0
         NFxFlg=           0 DoJE=T BraDBF=F KetDBF=F FulRan=T
         wScrn=  0.000000 ICntrl=     500 IOpCl=  0 I1Cent=           0 NGrid=           0
         NMat0=    1 NMatS0=      1 NMatT0=    0 NMatD0=    1 NMtDS0=    0 NMtDT0=    0
 Symmetry not used in FoFCou.
 Defaulting to unpruned grid for atomic number  78.
 Defaulting to unpruned grid for atomic number  78.
 Defaulting to unpruned grid for atomic number  78.
 Defaulting to unpruned grid for atomic number  78.
 Defaulting to unpruned grid for atomic number  78.
 Defaulting to unpruned grid for atomic number  78.
 Defaulting to unpruned grid for atomic number  78.
 Defaulting to unpruned grid for atomic number  78.
 Inv3:  Mode=1 IEnd=    41962800.
 Iteration    1 A*A^-1 deviation from unit magnitude is 1.14D-14 for   1913.
 Iteration    1 A*A^-1 deviation from orthogonality  is 6.15D-15 for   2497    648.
 Iteration    1 A^-1*A deviation from unit magnitude is 1.17D-14 for   2350.
 Iteration    1 A^-1*A deviation from orthogonality  is 7.37D-10 for   2152   2108.
 Iteration    2 A*A^-1 deviation from unit magnitude is 1.51D-14 for   2350.
 Iteration    2 A*A^-1 deviation from orthogonality  is 1.46D-14 for   2298    344.
 Iteration    2 A^-1*A deviation from unit magnitude is 2.00D-15 for     17.
 Iteration    2 A^-1*A deviation from orthogonality  is 7.63D-16 for   1943    794.
 E= -28307.3682485569    
 DIIS: error= 2.82D-01 at cycle   1 NSaved=   1.
 NSaved= 1 IEnMin= 1 EnMin= -28307.3682485569     IErMin= 1 ErrMin= 2.82D-01
 ErrMax= 2.82D-01  0.00D+00 EMaxC= 1.00D-01 BMatC= 3.43D+02 BMatP= 3.43D+02
 IDIUse=3 WtCom= 0.00D+00 WtEn= 1.00D+00
 Coeff-Com:  0.100D+01
 Coeff-En:   0.100D+01
 Coeff:      0.100D+01
 Gap=    -0.169 Goal=   None    Shift=    0.000
 GapD=   -0.169 DampG=0.250 DampE=0.125 DampFc=0.1250 IDamp=-1.
 Damping current iteration by 1.25D-01
 RMSDP=3.64D-01 MaxDP=4.03D+01              OVMax= 8.88D-01

 Cycle   2  Pass 1  IDiag  1:
 RMSU=  4.41D-02    CP:  1.84D+00
 E= -28308.7111590166     Delta-E=       -1.342910459709 Rises=F Damp=T
 DIIS: error= 2.48D-01 at cycle   2 NSaved=   2.
 NSaved= 2 IEnMin= 2 EnMin= -28308.7111590166     IErMin= 2 ErrMin= 2.48D-01
 ErrMax= 2.48D-01  0.00D+00 EMaxC= 1.00D-01 BMatC= 2.40D+02 BMatP= 3.43D+02
 IDIUse=3 WtCom= 0.00D+00 WtEn= 1.00D+00
 Coeff-Com: -0.381D+01 0.481D+01
 Coeff-En:   0.261D+00 0.739D+00
 Coeff:      0.261D+00 0.739D+00
 Gap=     0.167 Goal=   None    Shift=    0.000
 RMSDP=4.12D-02 MaxDP=4.43D+00 DE=-1.34D+00 OVMax= 9.66D-01

 Cycle   3  Pass 1  IDiag  1:
 RMSU=  8.97D-03    CP:  1.17D+00  1.11D-01
 E= -28305.1628326359     Delta-E=        3.548326380733 Rises=F Damp=F
 DIIS: error= 1.34D-01 at cycle   3 NSaved=   3.
 NSaved= 3 IEnMin= 2 EnMin= -28308.7111590166     IErMin= 3 ErrMin= 1.34D-01
 ErrMax= 1.34D-01  0.00D+00 EMaxC= 1.00D-01 BMatC= 4.04D+01 BMatP= 2.40D+02
 IDIUse=3 WtCom= 0.00D+00 WtEn= 1.00D+00
 EnCoef did   100 forward-backward iterations
 Coeff-Com:  0.461D+00-0.297D+00 0.837D+00
 Coeff-En:   0.534D+00 0.942D-02 0.457D+00
 Coeff:      0.534D+00 0.942D-02 0.457D+00
 Gap=    -0.047 Goal=   None    Shift=    0.000
 RMSDP=9.80D-03 MaxDP=6.85D-01 DE= 3.55D+00 OVMax= 8.62D-01

 Cycle   4  Pass 1  IDiag  1:
 RMSU=  2.69D-03    CP:  9.74D-01 -6.15D-03  1.70D-01
 E= -28316.3703263148     Delta-E=      -11.207493678936 Rises=F Damp=F
 DIIS: error= 1.34D-02 at cycle   4 NSaved=   4.
 NSaved= 4 IEnMin= 4 EnMin= -28316.3703263148     IErMin= 4 ErrMin= 1.34D-02
 ErrMax= 1.34D-02  0.00D+00 EMaxC= 1.00D-01 BMatC= 1.23D+00 BMatP= 4.04D+01
 IDIUse=3 WtCom= 8.66D-01 WtEn= 1.34D-01
 Coeff-Com:  0.254D-01 0.163D-01-0.482D-01 0.101D+01
 Coeff-En:   0.000D+00 0.000D+00 0.000D+00 0.100D+01
 Coeff:      0.220D-01 0.141D-01-0.417D-01 0.101D+01
 Gap=     0.139 Goal=   None    Shift=    0.000
 RMSDP=4.97D-03 MaxDP=3.44D-01 DE=-1.12D+01 OVMax= 2.40D-01

 Cycle   5  Pass 1  IDiag  1:
 RMSU=  3.33D-03    CP:  1.07D+00  5.84D-02  2.60D-01  3.42D-01
 E= -28315.7606636027     Delta-E=        0.609662712122 Rises=F Damp=F
 DIIS: error= 1.46D-02 at cycle   5 NSaved=   5.
 NSaved= 5 IEnMin= 4 EnMin= -28316.3703263148     IErMin= 4 ErrMin= 1.34D-02
 ErrMax= 1.46D-02  0.00D+00 EMaxC= 1.00D-01 BMatC= 8.49D-01 BMatP= 1.23D+00
 IDIUse=3 WtCom= 8.54D-01 WtEn= 1.46D-01
 Coeff-Com:  0.119D-01 0.104D-01-0.355D-01 0.621D+00 0.392D+00
 Coeff-En:   0.000D+00 0.000D+00 0.000D+00 0.754D+00 0.246D+00
 Coeff:      0.102D-01 0.887D-02-0.303D-01 0.640D+00 0.371D+00
 Gap=     0.115 Goal=   None    Shift=    0.000
 RMSDP=4.37D-03 MaxDP=2.97D-01 DE= 6.10D-01 OVMax= 1.85D-01

 Cycle   6  Pass 1  IDiag  1:
 RMSU=  6.71D-04    CP:  9.79D-01 -3.13D-03  1.62D-01  8.38D-01  1.96D-01
 E= -28316.5501462786     Delta-E=       -0.789482675893 Rises=F Damp=F
 DIIS: error= 3.59D-03 at cycle   6 NSaved=   6.
 NSaved= 6 IEnMin= 6 EnMin= -28316.5501462786     IErMin= 6 ErrMin= 3.59D-03
 ErrMax= 3.59D-03  0.00D+00 EMaxC= 1.00D-01 BMatC= 5.44D-02 BMatP= 8.49D-01
 IDIUse=3 WtCom= 9.64D-01 WtEn= 3.59D-02
 Coeff-Com:  0.207D-01-0.193D-01-0.123D-01 0.174D+00 0.205D+00 0.632D+00
 Coeff-En:   0.000D+00 0.000D+00 0.000D+00 0.000D+00 0.168D-02 0.998D+00
 Coeff:      0.200D-01-0.186D-01-0.119D-01 0.168D+00 0.197D+00 0.645D+00
 Gap=     0.098 Goal=   None    Shift=    0.000
 RMSDP=8.40D-04 MaxDP=4.59D-02 DE=-7.89D-01 OVMax= 6.52D-02

 Cycle   7  Pass 1  IDiag  1:
 RMSU=  3.83D-04    CP:  9.95D-01  5.68D-03  1.72D-01  7.73D-01  3.13D-01
                    CP:  3.79D-01
 E= -28316.5713047088     Delta-E=       -0.021158430252 Rises=F Damp=F
 DIIS: error= 2.40D-03 at cycle   7 NSaved=   7.
 NSaved= 7 IEnMin= 7 EnMin= -28316.5713047088     IErMin= 7 ErrMin= 2.40D-03
 ErrMax= 2.40D-03  0.00D+00 EMaxC= 1.00D-01 BMatC= 1.99D-02 BMatP= 5.44D-02
 IDIUse=3 WtCom= 9.76D-01 WtEn= 2.40D-02
 Coeff-Com:  0.124D-01-0.134D-01-0.502D-02 0.619D-01 0.101D+00 0.435D+00
 Coeff-Com:  0.409D+00
 Coeff-En:   0.000D+00 0.000D+00 0.000D+00 0.000D+00 0.000D+00 0.350D+00
 Coeff-En:   0.650D+00
 Coeff:      0.121D-01-0.130D-01-0.489D-02 0.605D-01 0.983D-01 0.433D+00
 Coeff:      0.414D+00
 Gap=     0.096 Goal=   None    Shift=    0.000
 RMSDP=4.02D-04 MaxDP=2.36D-02 DE=-2.12D-02 OVMax= 4.37D-02

 Cycle   8  Pass 1  IDiag  1:
 RMSU=  1.42D-04    CP:  9.88D-01  2.39D-03  1.64D-01  7.82D-01  2.83D-01
                    CP:  7.01D-01  4.19D-01
 E= -28316.5891439982     Delta-E=       -0.017839289329 Rises=F Damp=F
 DIIS: error= 9.60D-04 at cycle   8 NSaved=   8.
 NSaved= 8 IEnMin= 8 EnMin= -28316.5891439982     IErMin= 8 ErrMin= 9.60D-04
 ErrMax= 9.60D-04  0.00D+00 EMaxC= 1.00D-01 BMatC= 2.53D-03 BMatP= 1.99D-02
 IDIUse=3 WtCom= 9.90D-01 WtEn= 9.60D-03
 Coeff-Com:  0.400D-02-0.453D-02-0.139D-02 0.162D-01 0.352D-01 0.185D+00
 Coeff-Com:  0.285D+00 0.480D+00
 Coeff-En:   0.000D+00 0.000D+00 0.000D+00 0.000D+00 0.000D+00 0.000D+00
 Coeff-En:   0.157D+00 0.843D+00
 Coeff:      0.396D-02-0.448D-02-0.137D-02 0.160D-01 0.349D-01 0.183D+00
 Coeff:      0.284D+00 0.484D+00
 Gap=     0.095 Goal=   None    Shift=    0.000
 RMSDP=1.09D-04 MaxDP=5.44D-03 DE=-1.78D-02 OVMax= 1.87D-02

 Cycle   9  Pass 1  IDiag  1:
 RMSU=  7.31D-05    CP:  9.88D-01  2.58D-03  1.66D-01  7.77D-01  2.88D-01
                    CP:  6.90D-01  5.28D-01  5.57D-01
 E= -28316.5915656092     Delta-E=       -0.002421611069 Rises=F Damp=F
 DIIS: error= 2.60D-04 at cycle   9 NSaved=   9.
 NSaved= 9 IEnMin= 9 EnMin= -28316.5915656092     IErMin= 9 ErrMin= 2.60D-04
 ErrMax= 2.60D-04  0.00D+00 EMaxC= 1.00D-01 BMatC= 3.39D-04 BMatP= 2.53D-03
 IDIUse=3 WtCom= 9.97D-01 WtEn= 2.60D-03
 Coeff-Com:  0.526D-03-0.617D-03-0.110D-03 0.287D-02 0.785D-02 0.567D-01
 Coeff-Com:  0.127D+00 0.323D+00 0.482D+00
 Coeff-En:   0.000D+00 0.000D+00 0.000D+00 0.000D+00 0.000D+00 0.000D+00
 Coeff-En:   0.000D+00 0.124D+00 0.876D+00
 Coeff:      0.525D-03-0.616D-03-0.110D-03 0.286D-02 0.783D-02 0.566D-01
 Coeff:      0.127D+00 0.323D+00 0.484D+00
 Gap=     0.095 Goal=   None    Shift=    0.000
 RMSDP=4.64D-05 MaxDP=2.75D-03 DE=-2.42D-03 OVMax= 5.40D-03

 Error on total polarization charges =  0.02984
 SCF Done:  E(RPBE-PBE) =  -28316.5915656     A.U. after    9 cycles
            NFock=  9  Conv=0.46D-04     -V/T= 2.0147
 KE= 2.790575493979D+04 PE=-8.392591932278D+04 EE= 1.929339279961D+04
 Leave Link  502 at Thu May 23 02:23:35 2019, MaxMem=  2013265920 cpu:     10669.0
 (Enter /scr/programs/g09/l801.exe)
 Range of M.O.s used for correlation:     1  1071
 NBasis=  1071 NAE=   185 NBE=   185 NFC=     0 NFV=     0
 NROrb=   1071 NOA=   185 NOB=   185 NVA=   886 NVB=   886

 **** Warning!!: The largest alpha MO coefficient is  0.53248688D+02


 **** Warning!!: The smallest alpha delta epsilon is  0.94667901D-01

 Leave Link  801 at Thu May 23 02:23:35 2019, MaxMem=  2013265920 cpu:         0.6
 (Enter /scr/programs/g09/l1002.exe)
 Minotr:  Closed shell wavefunction.
 NEqPCM:  Using equilibrium solvation (IEInf=0, Eps=   8.9300, EpsInf=   2.0283)
          Direct CPHF calculation.
          Differentiating once with respect to magnetic field using GIAOs.
          Electric field/nuclear overlap derivatives assumed to be zero.
          Requested convergence is 1.0D-08 RMS, and 1.0D-07 maximum.
          Secondary convergence is 1.0D-12 RMS, and 1.0D-12 maximum.
          NewPWx=T KeepS1=F KeepF1=F KeepIn=T MapXYZ=F SortEE=F KeepMc=T.
          MDV=    2013264517 using IRadAn=       2.
 Defaulting to unpruned grid for atomic number  78.
 Generate precomputed XC quadrature information.
          Solving linear equations simultaneously, MaxMat=       0.
 FoFJK:  IHMeth= 1 ICntrl=    6127 DoSepK=F KAlg= 0 I1Cent=   0 FoldK=F
 IRaf=         1 NMat=   1 IRICut=       1 DoRegI=T DoRafI=F ISym2E= 0.
 Defaulting to unpruned grid for atomic number  78.
 Defaulting to unpruned grid for atomic number  78.
 Defaulting to unpruned grid for atomic number  78.
 Defaulting to unpruned grid for atomic number  78.
 Defaulting to unpruned grid for atomic number  78.
 Defaulting to unpruned grid for atomic number  78.
 Defaulting to unpruned grid for atomic number  78.
 Defaulting to unpruned grid for atomic number  78.
          There are     3 degrees of freedom in the 1st order CPHF.  IDoFFX=0 NUNeed=     3.
      3 vectors produced by pass  0 Test12= 5.46D-12 3.33D-08 XBig12= 3.82D+02 2.64D+00.
 AX will form     3 AO Fock derivatives at one time.
 InvSVY:  IOpt=1 It=  1 EMax= 0.00D+00
 Solved reduced A of dimension     3 with     3 vectors.
 Calculating GIAO nuclear magnetic shielding tensors.
 SCF GIAO Magnetic shielding tensor (ppm):
      1  Pt   Isotropic =  2734.8360   Anisotropy =  2139.8673
   XX=  4090.6323   YX=   113.2165   ZX=   -44.4996
   XY=   219.8471   YY=  3730.9649   ZY=   414.4419
   XZ=     6.4638   YZ=   438.7564   ZZ=   382.9107
   Eigenvalues:   328.9920  3714.1017  4161.4142
      2  Cl   Isotropic =  1022.7944   Anisotropy =   558.0713
   XX=   743.6033   YX=   141.1142   ZX=    14.3270
   XY=   145.9960   YY=   934.8774   ZY=   -43.4134
   XZ=    27.8729   YZ=   -51.2794   ZZ=  1389.9024
   Eigenvalues:   664.4248  1009.1165  1394.8419
      3  Cl   Isotropic =   852.7699   Anisotropy =   167.7514
   XX=   753.9241   YX=   -98.9523   ZX=   -17.3963
   XY=   -91.2135   YY=   916.1838   ZY=    22.8910
   XZ=   -29.7322   YZ=    -3.8463   ZZ=   888.2019
   Eigenvalues:   708.3647   885.3409   964.6042
      4  Sn   Isotropic =  2151.4051   Anisotropy =   853.9277
   XX=  2402.2036   YX=  -406.1237   ZX=   -34.8134
   XY=  -397.7464   YY=  2206.7580   ZY=    26.7025
   XZ=   -38.6625   YZ=    33.1871   ZZ=  1845.2537
   Eigenvalues:  1842.6739  1890.8512  2720.6902
      5  Cl   Isotropic =   761.1219   Anisotropy =   298.6156
   XX=   637.0273   YX=    49.6618   ZX=    -4.5939
   XY=    63.5547   YY=   950.0571   ZY=     6.4377
   XZ=    -8.0771   YZ=    11.2278   ZZ=   696.2813
   Eigenvalues:   626.2417   696.9250   960.1989
      6  Cl   Isotropic =   771.4459   Anisotropy =   337.7319
   XX=   792.2417   YX=    10.9640   ZX=  -175.1540
   XY=    16.7166   YY=   659.6261   ZY=    21.1539
   XZ=  -155.8268   YZ=    13.7434   ZZ=   862.4700
   Eigenvalues:   637.1224   680.6149   996.6005
      7  Cl   Isotropic =   769.5088   Anisotropy =   335.3642
   XX=   806.5360   YX=    -4.8000   ZX=   176.8118
   XY=    -0.3919   YY=   659.8312   ZY=   -43.3176
   XZ=   153.2453   YZ=   -33.1924   ZZ=   842.1592
   Eigenvalues:   634.1830   681.2584   993.0849
      8  As   Isotropic =   986.2949   Anisotropy =   328.2167
   XX=  1005.1052   YX=   160.9579   ZX=    46.2789
   XY=   134.6162   YY=  1087.0440   ZY=     9.3111
   XZ=    90.3652   YZ=    -4.6335   ZZ=   866.7357
   Eigenvalues:   822.0719   931.7069  1205.1061
      9  C    Isotropic =    18.9249   Anisotropy =   172.3509
   XX=    99.0942   YX=   -41.1719   ZX=   -24.6100
   XY=   -57.4076   YY=     0.0305   ZY=    53.9720
   XZ=   -41.3780   YZ=    44.6988   ZZ=   -42.3501
   Eigenvalues:   -74.8548    -2.1960   133.8254
     10  C    Isotropic =    44.5808   Anisotropy =   178.0671
   XX=    85.7448   YX=   -67.9433   ZX=   -76.0077
   XY=   -54.1585   YY=    59.7742   ZY=    13.7750
   XZ=   -83.0224   YZ=     5.0666   ZZ=   -11.7765
   Eigenvalues:   -60.8188    31.2690   163.2922
     11  C    Isotropic =    30.0773   Anisotropy =   163.5907
   XX=    69.4185   YX=   -89.7219   ZX=   -43.7396
   XY=   -88.4660   YY=   -22.3110   ZY=     8.0041
   XZ=   -32.2103   YZ=    14.6957   ZZ=    43.1244
   Eigenvalues:   -77.5496    28.6437   139.1378
     12  C    Isotropic =    62.9141   Anisotropy =   208.9663
   XX=   125.2503   YX=   -96.9866   ZX=   -53.9764
   XY=  -102.5290   YY=     5.9496   ZY=    19.9414
   XZ=   -48.5057   YZ=    19.3751   ZZ=    57.5423
   Eigenvalues:   -51.3270    37.8443   202.2249
     13  H    Isotropic =    23.9427   Anisotropy =    11.2955
   XX=    21.1046   YX=     5.6781   ZX=    -2.7273
   XY=     1.7733   YY=    28.2606   ZY=    -2.4865
   XZ=    -2.6494   YZ=    -3.4748   ZZ=    22.4629
   Eigenvalues:    18.7965    21.5586    31.4730
     14  C    Isotropic =    54.0766   Anisotropy =   195.9782
   XX=   114.4665   YX=   -69.6103   ZX=   -82.3831
   XY=   -67.9539   YY=    62.5254   ZY=     2.2084
   XZ=   -74.1039   YZ=     1.6388   ZZ=   -14.7620
   Eigenvalues:   -59.0277    36.5289   184.7288
     15  H    Isotropic =    22.7800   Anisotropy =    14.9079
   XX=    19.6131   YX=     0.2925   ZX=    -0.9724
   XY=    -0.5443   YY=    18.6804   ZY=    -6.5098
   XZ=    -1.1268   YZ=    -5.5649   ZZ=    30.0466
   Eigenvalues:    15.9929    19.6285    32.7186
     16  C    Isotropic =    52.5884   Anisotropy =   194.3949
   XX=   135.3194   YX=   -53.3911   ZX=   -44.4235
   XY=   -57.7721   YY=    30.1565   ZY=    61.7800
   XZ=   -40.9267   YZ=    65.0820   ZZ=    -7.7107
   Eigenvalues:   -54.9803    30.5604   182.1850
     17  H    Isotropic =    25.0083   Anisotropy =     3.9986
   XX=    23.5312   YX=    -0.0360   ZX=    -0.0717
   XY=    -0.8292   YY=    25.2008   ZY=    -2.1909
   XZ=    -0.0773   YZ=    -1.4855   ZZ=    26.2928
   Eigenvalues:    23.2554    24.0954    27.6740
     18  H    Isotropic =    23.8572   Anisotropy =     7.3308
   XX=    21.5117   YX=     1.7626   ZX=    -1.6284
   XY=     1.6531   YY=    24.7474   ZY=    -3.0433
   XZ=    -0.9188   YZ=    -3.1456   ZZ=    25.3126
   Eigenvalues:    20.7758    22.0515    28.7444
     19  H    Isotropic =    25.2795   Anisotropy =     1.3468
   XX=    25.7979   YX=     1.1250   ZX=    -0.0754
   XY=    -0.1202   YY=    25.3610   ZY=     0.4950
   XZ=     0.0384   YZ=     0.5062   ZZ=    24.6798
   Eigenvalues:    24.3656    25.2956    26.1774
     20  C    Isotropic =    36.4497   Anisotropy =   175.9317
   XX=   147.6878   YX=   -19.4614   ZX=    16.9785
   XY=   -23.3018   YY=    10.2061   ZY=   -10.5407
   XZ=    27.6933   YZ=   -12.0560   ZZ=   -48.5447
   Eigenvalues:   -52.3559     7.9676   153.7375
     21  C    Isotropic =    44.0369   Anisotropy =   173.8263
   XX=   147.2224   YX=   -36.0461   ZX=    37.5824
   XY=   -31.6454   YY=    -3.9487   ZY=    35.0887
   XZ=    38.8957   YZ=    40.3702   ZZ=   -11.1632
   Eigenvalues:   -58.1530    30.3426   159.9210
     22  C    Isotropic =    45.2627   Anisotropy =   182.0321
   XX=   150.8221   YX=   -49.0187   ZX=    36.0954
   XY=   -35.4732   YY=   -48.5390   ZY=   -20.2361
   XZ=    19.5788   YZ=   -16.1957   ZZ=    33.5050
   Eigenvalues:   -58.8440    28.0146   166.6174
     23  C    Isotropic =    55.7814   Anisotropy =   196.0719
   XX=   173.6665   YX=   -41.3706   ZX=    27.0051
   XY=   -42.8825   YY=   -43.9262   ZY=   -20.1086
   XZ=    20.2668   YZ=   -21.6704   ZZ=    37.6038
   Eigenvalues:   -54.7356    35.5838   186.4960
     24  H    Isotropic =    23.1323   Anisotropy =    11.1241
   XX=    18.5533   YX=     2.7867   ZX=    -0.7532
   XY=     1.6527   YY=    25.1463   ZY=     5.1466
   XZ=     0.9848   YZ=     4.6508   ZZ=    25.6972
   Eigenvalues:    17.5560    21.2925    30.5483
     25  C    Isotropic =    56.1789   Anisotropy =   193.6711
   XX=   170.4473   YX=   -38.5391   ZX=    43.7800
   XY=   -39.5862   YY=     9.9448   ZY=    31.1616
   XZ=    40.4364   YZ=    40.2409   ZZ=   -11.8552
   Eigenvalues:   -52.9032    36.1470   185.2930
     26  H    Isotropic =    22.7627   Anisotropy =    14.3874
   XX=    19.6036   YX=     0.8262   ZX=     0.7627
   XY=     1.6878   YY=    16.4265   ZY=     0.6226
   XZ=     1.2874   YZ=     0.1147   ZZ=    32.2579
   Eigenvalues:    15.9893    19.9444    32.3543
     27  C    Isotropic =    47.8353   Anisotropy =   189.6845
   XX=   165.1247   YX=   -17.8718   ZX=    33.8438
   XY=   -22.2224   YY=    21.2977   ZY=   -33.6513
   XZ=    31.4922   YZ=   -33.2423   ZZ=   -42.9165
   Eigenvalues:   -59.4705    28.6847   174.2917
     28  H    Isotropic =    23.7017   Anisotropy =     5.9091
   XX=    20.4505   YX=     0.7593   ZX=    -0.4706
   XY=     0.7750   YY=    23.2728   ZY=     1.4810
   XZ=    -0.1991   YZ=     0.6347   ZZ=    27.3818
   Eigenvalues:    20.2059    23.2582    27.6411
     29  H    Isotropic =    23.6091   Anisotropy =     6.7518
   XX=    20.7987   YX=     0.5652   ZX=     0.5584
   XY=     0.7063   YY=    23.1350   ZY=     2.2207
   XZ=     0.6486   YZ=     2.4664   ZZ=    26.8937
   Eigenvalues:    20.6369    22.0801    28.1104
     30  H    Isotropic =    24.1095   Anisotropy =     2.4987
   XX=    22.2511   YX=     1.2536   ZX=     0.1882
   XY=     0.7941   YY=    25.4676   ZY=    -0.0151
   XZ=     0.0530   YZ=    -0.2729   ZZ=    24.6098
   Eigenvalues:    21.9437    24.6095    25.7753
     31  C    Isotropic =    16.6227   Anisotropy =   171.2134
   XX=   -47.9256   YX=    65.2882   ZX=    -0.8621
   XY=    80.1715   YY=    99.8912   ZY=   -16.0973
   XZ=    -4.2991   YZ=    -7.7940   ZZ=    -2.0976
   Eigenvalues:   -77.7704    -3.1265   130.7650
     32  C    Isotropic =    25.8842   Anisotropy =   151.3267
   XX=     9.3593   YX=    40.5014   ZX=   -48.2530
   XY=    30.0256   YY=   115.8497   ZY=     8.9731
   XZ=   -44.7478   YZ=     4.6625   ZZ=   -47.5563
   Eigenvalues:   -76.5119    27.3959   126.7687
     33  C    Isotropic =    37.5379   Anisotropy =   160.1573
   XX=    27.9287   YX=    45.1572   ZX=    37.9300
   XY=    33.9335   YY=   129.7862   ZY=   -25.7296
   XZ=    28.8784   YZ=   -24.9208   ZZ=   -45.1012
   Eigenvalues:   -65.7134    34.0177   144.3094
     34  C    Isotropic =    57.7114   Anisotropy =   205.8078
   XX=    39.5537   YX=    50.3055   ZX=    28.5429
   XY=    56.1155   YY=   175.9751   ZY=   -24.3322
   XZ=    33.2171   YZ=   -22.5759   ZZ=   -42.3945
   Eigenvalues:   -59.7243    37.9419   194.9167
     35  H    Isotropic =    24.4268   Anisotropy =    13.0978
   XX=    28.8417   YX=    -5.7004   ZX=    -5.8473
   XY=    -1.6867   YY=    22.9149   ZY=     0.1892
   XZ=    -5.1890   YZ=     1.7618   ZZ=    21.5239
   Eigenvalues:    18.3400    21.7819    33.1587
     36  C    Isotropic =    65.1433   Anisotropy =   218.4882
   XX=    30.0267   YX=    52.9981   ZX=   -44.4794
   XY=    59.1215   YY=   192.4807   ZY=     1.9642
   XZ=   -45.8577   YZ=    -3.0887   ZZ=   -27.0776
   Eigenvalues:   -55.0908    39.7185   210.8021
     37  H    Isotropic =    24.5911   Anisotropy =    13.7330
   XX=    31.2977   YX=    -5.7815   ZX=     2.6668
   XY=    -2.6187   YY=    21.1652   ZY=    -0.1162
   XZ=     4.1736   YZ=    -0.9855   ZZ=    21.3103
   Eigenvalues:    19.2947    20.7321    33.7464
     38  C    Isotropic =    62.7797   Anisotropy =   224.9906
   XX=   -27.9685   YX=    75.1608   ZX=    -0.5508
   XY=    92.3908   YY=   182.8324   ZY=   -12.3542
   XZ=     2.2839   YZ=   -12.0217   ZZ=    33.4754
   Eigenvalues:   -57.4653    33.0310   212.7735
     39  H    Isotropic =    24.3604   Anisotropy =     6.4558
   XX=    27.9400   YX=    -2.5255   ZX=     0.5488
   XY=    -1.5871   YY=    22.1595   ZY=    -0.4677
   XZ=     0.5601   YZ=    -0.1291   ZZ=    22.9817
   Eigenvalues:    21.4934    22.9236    28.6643
     40  H    Isotropic =    24.7405   Anisotropy =     5.7821
   XX=    27.7759   YX=    -2.1972   ZX=    -1.0552
   XY=    -1.3028   YY=    23.0613   ZY=     0.6970
   XZ=    -0.8978   YZ=     0.5229   ZZ=    23.3842
   Eigenvalues:    22.3882    23.2380    28.5952
     41  H    Isotropic =    25.1489   Anisotropy =     1.6695
   XX=    25.0317   YX=    -0.5891   ZX=     0.1451
   XY=     0.3147   YY=    24.1824   ZY=     0.1750
   XZ=     0.1574   YZ=     0.1542   ZZ=    26.2328
   Eigenvalues:    24.1441    25.0408    26.2619
 End of Minotr F.D. properties file   721 does not exist.
 End of Minotr F.D. properties file   722 does not exist.
 End of Minotr F.D. properties file   788 does not exist.
 Leave Link 1002 at Thu May 23 03:28:12 2019, MaxMem=  2013265920 cpu:     30932.2
 (Enter /scr/programs/g09/l601.exe)
 Copying SCF densities to generalized density rwf, IOpCl= 0 IROHF=0.

 **********************************************************************

            Population analysis using the SCF density.

 **********************************************************************

 Orbital symmetries:
       Occupied  (A) (A) (A) (A) (A) (A) (A) (A) (A) (A) (A) (A)
                 (A) (A) (A) (A) (A) (A) (A) (A) (A) (A) (A) (A)
                 (A) (A) (A) (A) (A) (A) (A) (A) (A) (A) (A) (A)
                 (A) (A) (A) (A) (A) (A) (A) (A) (A) (A) (A) (A)
                 (A) (A) (A) (A) (A) (A) (A) (A) (A) (A) (A) (A)
                 (A) (A) (A) (A) (A) (A) (A) (A) (A) (A) (A) (A)
                 (A) (A) (A) (A) (A) (A) (A) (A) (A) (A) (A) (A)
                 (A) (A) (A) (A) (A) (A) (A) (A) (A) (A) (A) (A)
                 (A) (A) (A) (A) (A) (A) (A) (A) (A) (A) (A) (A)
                 (A) (A) (A) (A) (A) (A) (A) (A) (A) (A) (A) (A)
                 (A) (A) (A) (A) (A) (A) (A) (A) (A) (A) (A) (A)
                 (A) (A) (A) (A) (A) (A) (A) (A) (A) (A) (A) (A)
                 (A) (A) (A) (A) (A) (A) (A) (A) (A) (A) (A) (A)
                 (A) (A) (A) (A) (A) (A) (A) (A) (A) (A) (A) (A)
                 (A) (A) (A) (A) (A) (A) (A) (A) (A) (A) (A) (A)
                 (A) (A) (A) (A) (A)
       Virtual   (A) (A) (A) (A) (A) (A) (A) (A) (A) (A) (A) (A)
                 (A) (A) (A) (A) (A) (A) (A) (A) (A) (A) (A) (A)
                 (A) (A) (A) (A) (A) (A) (A) (A) (A) (A) (A) (A)
                 (A) (A) (A) (A) (A) (A) (A) (A) (A) (A) (A) (A)
                 (A) (A) (A) (A) (A) (A) (A) (A) (A) (A) (A) (A)
                 (A) (A) (A) (A) (A) (A) (A) (A) (A) (A) (A) (A)
                 (A) (A) (A) (A) (A) (A) (A) (A) (A) (A) (A) (A)
                 (A) (A) (A) (A) (A) (A) (A) (A) (A) (A) (A) (A)
                 (A) (A) (A) (A) (A) (A) (A) (A) (A) (A) (A) (A)
                 (A) (A) (A) (A) (A) (A) (A) (A) (A) (A) (A) (A)
                 (A) (A) (A) (A) (A) (A) (A) (A) (A) (A) (A) (A)
                 (A) (A) (A) (A) (A) (A) (A) (A) (A) (A) (A) (A)
                 (A) (A) (A) (A) (A) (A) (A) (A) (A) (A) (A) (A)
                 (A) (A) (A) (A) (A) (A) (A) (A) (A) (A) (A) (A)
                 (A) (A) (A) (A) (A) (A) (A) (A) (A) (A) (A) (A)
                 (A) (A) (A) (A) (A) (A) (A) (A) (A) (A) (A) (A)
                 (A) (A) (A) (A) (A) (A) (A) (A) (A) (A) (A) (A)
                 (A) (A) (A) (A) (A) (A) (A) (A) (A) (A) (A) (A)
                 (A) (A) (A) (A) (A) (A) (A) (A) (A) (A) (A) (A)
                 (A) (A) (A) (A) (A) (A) (A) (A) (A) (A) (A) (A)
                 (A) (A) (A) (A) (A) (A) (A) (A) (A) (A) (A) (A)
                 (A) (A) (A) (A) (A) (A) (A) (A) (A) (A) (A) (A)
                 (A) (A) (A) (A) (A) (A) (A) (A) (A) (A) (A) (A)
                 (A) (A) (A) (A) (A) (A) (A) (A) (A) (A) (A) (A)
                 (A) (A) (A) (A) (A) (A) (A) (A) (A) (A) (A) (A)
                 (A) (A) (A) (A) (A) (A) (A) (A) (A) (A) (A) (A)
                 (A) (A) (A) (A) (A) (A) (A) (A) (A) (A) (A) (A)
                 (A) (A) (A) (A) (A) (A) (A) (A) (A) (A) (A) (A)
                 (A) (A) (A) (A) (A) (A) (A) (A) (A) (A) (A) (A)
                 (A) (A) (A) (A) (A) (A) (A) (A) (A) (A) (A) (A)
                 (A) (A) (A) (A) (A) (A) (A) (A) (A) (A) (A) (A)
                 (A) (A) (A) (A) (A) (A) (A) (A) (A) (A) (A) (A)
                 (A) (A) (A) (A) (A) (A) (A) (A) (A) (A) (A) (A)
                 (A) (A) (A) (A) (A) (A) (A) (A) (A) (A) (A) (A)
                 (A) (A) (A) (A) (A) (A) (A) (A) (A) (A) (A) (A)
                 (A) (A) (A) (A) (A) (A) (A) (A) (A) (A) (A) (A)
                 (A) (A) (A) (A) (A) (A) (A) (A) (A) (A) (A) (A)
                 (A) (A) (A) (A) (A) (A) (A) (A) (A) (A) (A) (A)
                 (A) (A) (A) (A) (A) (A) (A) (A) (A) (A) (A) (A)
                 (A) (A) (A) (A) (A) (A) (A) (A) (A) (A) (A) (A)
                 (A) (A) (A) (A) (A) (A) (A) (A) (A) (A) (A) (A)
                 (A) (A) (A) (A) (A) (A) (A) (A) (A) (A) (A) (A)
                 (A) (A) (A) (A) (A) (A) (A) (A) (A) (A) (A) (A)
                 (A) (A) (A) (A) (A) (A) (A) (A) (A) (A) (A) (A)
                 (A) (A) (A) (A) (A) (A) (A) (A) (A) (A) (A) (A)
                 (A) (A) (A) (A) (A) (A) (A) (A) (A) (A) (A) (A)
                 (A) (A) (A) (A) (A) (A) (A) (A) (A) (A) (A) (A)
                 (A) (A) (A) (A) (A) (A) (A) (A) (A) (A) (A) (A)
                 (A) (A) (A) (A) (A) (A) (A) (A) (A) (A) (A) (A)
                 (A) (A) (A) (A) (A) (A) (A) (A) (A) (A) (A) (A)
                 (A) (A) (A) (A) (A) (A) (A) (A) (A) (A) (A) (A)
                 (A) (A) (A) (A) (A) (A) (A) (A) (A) (A) (A) (A)
                 (A) (A) (A) (A) (A) (A) (A) (A) (A) (A) (A) (A)
                 (A) (A) (A) (A) (A) (A) (A) (A) (A) (A) (A) (A)
                 (A) (A) (A) (A) (A) (A) (A) (A) (A) (A) (A) (A)
                 (A) (A) (A) (A) (A) (A) (A) (A) (A) (A) (A) (A)
                 (A) (A) (A) (A) (A) (A) (A) (A) (A) (A) (A) (A)
                 (A) (A) (A) (A) (A) (A) (A) (A) (A) (A) (A) (A)
                 (A) (A) (A) (A) (A) (A) (A) (A) (A) (A) (A) (A)
                 (A) (A) (A) (A) (A) (A) (A) (A) (A) (A) (A) (A)
                 (A) (A) (A) (A) (A) (A) (A) (A) (A) (A) (A) (A)
                 (A) (A) (A) (A) (A) (A) (A) (A) (A) (A) (A) (A)
                 (A) (A) (A) (A) (A) (A) (A) (A) (A) (A) (A) (A)
                 (A) (A) (A) (A) (A) (A) (A) (A) (A) (A) (A) (A)
                 (A) (A) (A) (A) (A) (A) (A) (A) (A) (A) (A) (A)
                 (A) (A) (A) (A) (A) (A) (A) (A) (A) (A) (A) (A)
                 (A) (A) (A) (A) (A) (A) (A) (A) (A) (A) (A) (A)
                 (A) (A) (A) (A) (A) (A) (A) (A) (A) (A) (A) (A)
                 (A) (A) (A) (A) (A) (A) (A) (A) (A) (A) (A) (A)
                 (A) (A) (A) (A) (A) (A) (A) (A) (A) (A) (A) (A)
                 (A) (A) (A) (A) (A) (A) (A) (A) (A) (A) (A) (A)
                 (A) (A) (A) (A) (A) (A) (A) (A) (A) (A) (A) (A)
                 (A) (A) (A) (A) (A) (A) (A) (A) (A) (A) (A) (A)
                 (A) (A) (A) (A) (A) (A) (A) (A) (A) (A)
 The electronic state is 1-A.
 Alpha  occ. eigenvalues -- ********************-427.52325-422.28959-414.85368
 Alpha  occ. eigenvalues -- -414.85328-414.85034-149.64832-141.92644-141.92636
 Alpha  occ. eigenvalues -- -141.92566-100.54960-100.54886-100.54536-100.51720
 Alpha  occ. eigenvalues -- -100.50748 -99.90376 -92.06222 -92.06177 -92.05700
 Alpha  occ. eigenvalues --  -79.02149 -79.02011 -79.01754 -79.01733 -79.01652
 Alpha  occ. eigenvalues --  -53.00643 -47.59912 -47.59907 -47.59823 -28.81261
 Alpha  occ. eigenvalues --  -25.15907 -25.15878 -25.15653 -20.81835 -17.70785
 Alpha  occ. eigenvalues --  -17.70784 -17.70632 -17.70613 -17.70573 -17.38662
 Alpha  occ. eigenvalues --  -17.38573 -17.37578 -11.57164 -11.56668 -11.56147
 Alpha  occ. eigenvalues --  -11.56109 -11.55942  -9.91999  -9.91905  -9.91503
[...]
    15  H   -0.000017  -0.012459   0.482201  -0.000588   0.000003  -0.001223
    16  C   -0.010384   0.100362  -0.000588   6.426643  -0.019309  -0.002660
    17  H   -0.000563  -0.013875   0.000003  -0.019309   0.457649  -0.000021
    18  H    0.000002   0.441467  -0.001223  -0.002660  -0.000021   0.460571
    19  H   -0.000012   0.012450   0.000004   0.429979  -0.000296   0.000089
    20  C    0.010057  -0.000640  -0.000671  -0.000100  -0.000075   0.000001
    21  C   -0.018493   0.002027   0.000162   0.000082   0.000253  -0.000001
    22  C    0.001897  -0.000762  -0.000067   0.000055   0.000000   0.000000
    23  C   -0.005586   0.000243   0.000002  -0.000417  -0.000012   0.000000
    24  H    0.018525   0.000332  -0.000006  -0.000909  -0.000135   0.000000
    25  C    0.000061  -0.000028   0.000001   0.000007   0.000000   0.000000
    26  H    0.000002   0.000002   0.000001   0.000000   0.000000   0.000000
    27  C   -0.000100   0.000013   0.000000  -0.000019   0.000000   0.000000
    28  H   -0.000004   0.000000   0.000000  -0.000001   0.000000   0.000000
    29  H    0.000000   0.000000   0.000000   0.000000   0.000000   0.000000
    30  H    0.000000   0.000000   0.000000   0.000000   0.000000   0.000000
    31  C    0.006029   0.012224  -0.001315  -0.001424  -0.000057  -0.000007
    32  C    0.000959  -0.005164   0.000821  -0.000655   0.000061  -0.000006
    33  C   -0.000896   0.001105  -0.000095  -0.000215  -0.000001   0.000000
    34  C    0.000170  -0.002362   0.000102   0.000494   0.000003   0.000001
    35  H    0.000113  -0.002666  -0.000045  -0.000086  -0.000002   0.000015
    36  C   -0.000498   0.000071  -0.000002  -0.000035   0.000000   0.000000
    37  H    0.000008   0.000000   0.000000   0.000000   0.000000   0.000000
    38  C    0.000061  -0.000200   0.000002   0.000065   0.000000   0.000000
    39  H   -0.000001   0.000002   0.000000  -0.000003   0.000000   0.000000
    40  H    0.000000   0.000000   0.000000   0.000000   0.000000   0.000000
    41  H    0.000000   0.000000   0.000000   0.000000   0.000000   0.000000
              19         20         21         22         23         24
     1  Pt  -0.000490   0.092484  -0.013457  -0.083175   0.005438  -0.003479
     2  Cl  -0.000002   0.005106   0.000666  -0.004592   0.000072   0.000015
     3  Cl   0.000001   0.001083   0.002462   0.001292   0.000389  -0.000048
     4  Sn   0.001193   0.044693  -0.019007  -0.018799   0.000517  -0.000121
     5  Cl   0.000008  -0.005618   0.018374   0.005593  -0.006252  -0.000103
     6  Cl  -0.000001  -0.001159   0.000493   0.003804  -0.000196  -0.000019
     7  Cl  -0.000042   0.000061  -0.000102   0.000026  -0.000019   0.000023
     8  As   0.000262  -0.120869   0.120118   0.068404  -0.017855   0.036987
     9  C    0.021153  -0.138774   0.042559  -0.021450   0.017193   0.007466
    10  C   -0.028399   0.045716  -0.070108   0.010008  -0.010447  -0.007101
    11  C   -0.023341   0.001254   0.013915  -0.008130   0.001539   0.002015
    12  C   -0.021529   0.011001  -0.006481   0.000782  -0.004601  -0.009954
    13  H   -0.000012   0.010057  -0.018493   0.001897  -0.005586   0.018525
    14  C    0.012450  -0.000640   0.002027  -0.000762   0.000243   0.000332
    15  H    0.000004  -0.000671   0.000162  -0.000067   0.000002  -0.000006
    16  C    0.429979  -0.000100   0.000082   0.000055  -0.000417  -0.000909
    17  H   -0.000296  -0.000075   0.000253   0.000000  -0.000012  -0.000135
    18  H    0.000089   0.000001  -0.000001   0.000000   0.000000   0.000000
    19  H    0.448538   0.000002  -0.000003   0.000000   0.000000   0.000000
    20  C    0.000002   7.003449  -0.054227  -0.433200   0.072527  -0.006160
    21  C   -0.000003  -0.054227   6.838406  -0.152301  -0.459217   0.382026
    22  C    0.000000  -0.433200  -0.152301   6.677314  -0.287390   0.003446
    23  C    0.000000   0.072527  -0.459217  -0.287390   6.222716   0.002100
    24  H    0.000000  -0.006160   0.382026   0.003446   0.002100   0.499917
    25  C    0.000000  -0.046574  -0.229901  -0.266241  -0.128845   0.001115
    26  H    0.000000   0.076837   0.020471   0.296779   0.000733  -0.000019
    27  C    0.000000  -0.303026  -0.238333  -0.018444   0.282849  -0.000888
    28  H    0.000000  -0.030217  -0.020978   0.012492   0.449138  -0.001756
    29  H    0.000000  -0.025311   0.008973  -0.015174  -0.009100   0.000002
    30  H    0.000000   0.021452  -0.021838  -0.027129   0.009912  -0.000001
    31  C    0.000003  -0.089292  -0.013878   0.034710   0.001287   0.000515
    32  C   -0.000001  -0.024246  -0.010510   0.010567  -0.000299  -0.000211
    33  C    0.000000   0.054715  -0.009081  -0.074897   0.002410  -0.000981
    34  C    0.000000  -0.003306  -0.000589   0.001265  -0.000014  -0.000019
    35  H    0.000000  -0.000535  -0.000101  -0.000001   0.000002   0.000000
    36  C    0.000000   0.001439   0.005160  -0.010279   0.000523  -0.000014
    37  H    0.000000   0.022343  -0.004331   0.004989  -0.000398   0.000156
    38  C    0.000000  -0.000238   0.000348  -0.000489   0.000009   0.000008
    39  H    0.000000   0.000002   0.000000   0.000000   0.000000   0.000000
    40  H    0.000000  -0.000155   0.000020   0.000021   0.000002   0.000000
    41  H    0.000000   0.000002   0.000000   0.000000   0.000000   0.000000
              25         26         27         28         29         30
     1  Pt  -0.007261   0.025616   0.002409  -0.000624   0.002282  -0.000311
     2  Cl  -0.001182   0.000934  -0.000151  -0.000001   0.000074  -0.000002
     3  Cl  -0.003637  -0.000068  -0.000752  -0.000002  -0.000045   0.000008
     4  Sn   0.001226  -0.003708  -0.003310   0.000325   0.002526   0.001309
     5  Cl   0.001119   0.000198   0.001067  -0.000095  -0.000218  -0.000042
     6  Cl  -0.000332   0.000278  -0.000856  -0.000026  -0.000197  -0.000073
     7  Cl   0.000002   0.000010   0.000034   0.000000   0.000000  -0.000001
     8  As  -0.053197   0.035264  -0.003289   0.002530  -0.000845   0.000287
     9  C   -0.000841   0.000209   0.000665   0.000018   0.000003   0.000000
    10  C    0.000796  -0.000032  -0.000817  -0.000013  -0.000001   0.000000
    11  C   -0.000923  -0.000043   0.000198   0.000000   0.000000   0.000000
    12  C    0.000119  -0.000001  -0.000330  -0.000023   0.000000   0.000000
    13  H    0.000061   0.000002  -0.000100  -0.000004   0.000000   0.000000
    14  C   -0.000028   0.000002   0.000013   0.000000   0.000000   0.000000
    15  H    0.000001   0.000001   0.000000   0.000000   0.000000   0.000000
    16  C    0.000007   0.000000  -0.000019  -0.000001   0.000000   0.000000
    17  H    0.000000   0.000000   0.000000   0.000000   0.000000   0.000000
    18  H    0.000000   0.000000   0.000000   0.000000   0.000000   0.000000
    19  H    0.000000   0.000000   0.000000   0.000000   0.000000   0.000000
    20  C   -0.046574   0.076837  -0.303026  -0.030217  -0.025311   0.021452
    21  C   -0.229901   0.020471  -0.238333  -0.020978   0.008973  -0.021838
    22  C   -0.266241   0.296779  -0.018444   0.012492  -0.015174  -0.027129
    23  C   -0.128845   0.000733   0.282849   0.449138  -0.009100   0.009912
    24  H    0.001115  -0.000019  -0.000888  -0.001756   0.000002  -0.000001
    25  C    6.196261  -0.045240   0.246638  -0.012121   0.430557  -0.014922
    26  H   -0.045240   0.498868  -0.006107   0.000004  -0.000832  -0.000006
    27  C    0.246638  -0.006107   6.170811  -0.008280  -0.002000   0.424032
    28  H   -0.012121   0.000004  -0.008280   0.461967  -0.000021   0.000253
    29  H    0.430557  -0.000832  -0.002000  -0.000021   0.460341   0.000010
    30  H   -0.014922  -0.000006   0.424032   0.000253   0.000010   0.448976
    31  C    0.015312  -0.000129  -0.000313  -0.000011  -0.000008   0.000003
    32  C    0.001622   0.000093  -0.000117   0.000000   0.000000   0.000000
    33  C   -0.007176   0.000442  -0.000377   0.000036  -0.000028  -0.000005
    34  C    0.000060   0.000013  -0.000012   0.000000   0.000000   0.000000
    35  H    0.000001   0.000001   0.000000   0.000000   0.000000   0.000000
    36  C   -0.004011   0.000363   0.000244   0.000000  -0.000004   0.000000
    37  H    0.005572  -0.001732  -0.000414  -0.000004   0.000059   0.000000
    38  C   -0.000206   0.000011   0.000018   0.000000   0.000000   0.000000
    39  H    0.000000   0.000000   0.000000   0.000000   0.000000   0.000000
    40  H   -0.000015   0.000001   0.000000   0.000000   0.000000   0.000000
    41  H    0.000000   0.000000   0.000000   0.000000   0.000000   0.000000
              31         32         33         34         35         36
     1  Pt   0.020491   0.020324  -0.020065   0.006899   0.005552  -0.003654
     2  Cl   0.001959  -0.000274  -0.000049  -0.000134   0.000123  -0.000047
     3  Cl  -0.031796   0.034941   0.018495  -0.009315  -0.000899  -0.006665
     4  Sn   0.003792  -0.000125  -0.003107   0.000499   0.000626   0.000080
     5  Cl   0.000749  -0.000474  -0.000142  -0.000044  -0.000017   0.000064
     6  Cl   0.000005   0.000021  -0.000065   0.000002   0.000002  -0.000005
     7  Cl   0.000121  -0.000082   0.000004  -0.000004   0.000010   0.000002
     8  As  -0.073378   0.013057   0.016433  -0.017967   0.029829  -0.025316
     9  C   -0.069842   0.079984  -0.009818  -0.000169   0.018050  -0.003158
    10  C   -0.011338  -0.022585  -0.007683   0.006321   0.001545   0.001044
    11  C    0.038991  -0.059518   0.006796  -0.005435  -0.003366   0.001114
    12  C   -0.010297   0.010691  -0.000648   0.001705  -0.000046  -0.000203
    13  H    0.006029   0.000959  -0.000896   0.000170   0.000113  -0.000498
    14  C    0.012224  -0.005164   0.001105  -0.002362  -0.002666   0.000071
    15  H   -0.001315   0.000821  -0.000095   0.000102  -0.000045  -0.000002
    16  C   -0.001424  -0.000655  -0.000215   0.000494  -0.000086  -0.000035
    17  H   -0.000057   0.000061  -0.000001   0.000003  -0.000002   0.000000
    18  H   -0.000007  -0.000006   0.000000   0.000001   0.000015   0.000000
    19  H    0.000003  -0.000001   0.000000   0.000000   0.000000   0.000000
    20  C   -0.089292  -0.024246   0.054715  -0.003306  -0.000535   0.001439
    21  C   -0.013878  -0.010510  -0.009081  -0.000589  -0.000101   0.005160
    22  C    0.034710   0.010567  -0.074897   0.001265  -0.000001  -0.010279
    23  C    0.001287  -0.000299   0.002410  -0.000014   0.000002   0.000523
    24  H    0.000515  -0.000211  -0.000981  -0.000019   0.000000  -0.000014
    25  C    0.015312   0.001622  -0.007176   0.000060   0.000001  -0.004011
    26  H   -0.000129   0.000093   0.000442   0.000013   0.000001   0.000363
    27  C   -0.000313  -0.000117  -0.000377  -0.000012   0.000000   0.000244
    28  H   -0.000011   0.000000   0.000036   0.000000   0.000000   0.000000
    29  H   -0.000008   0.000000  -0.000028   0.000000   0.000000  -0.000004
    30  H    0.000003   0.000000  -0.000005   0.000000   0.000000   0.000000
    31  C    6.577001  -0.160319   0.080374  -0.080609   0.043443  -0.008529
    32  C   -0.160319   6.608706  -0.141645  -0.296428   0.363064  -0.313566
    33  C    0.080374  -0.141645   6.562022  -0.219161   0.008183  -0.302258
    34  C   -0.080609  -0.296428  -0.219161   5.975796  -0.046148  -0.072439
    35  H    0.043443   0.363064   0.008183  -0.046148   0.480922   0.000813
    36  C   -0.008529  -0.313566  -0.302258  -0.072439   0.000813   6.203439
    37  H    0.018379   0.004664   0.372690   0.001790  -0.000023  -0.023600
    38  C   -0.277344  -0.076530  -0.192950   0.319691  -0.011168   0.226049
    39  H   -0.020388  -0.010343   0.008439   0.435539  -0.000684  -0.009215
    40  H   -0.021737   0.010045  -0.031490  -0.007537   0.000002   0.441911
    41  H    0.019252  -0.025306  -0.021752  -0.006206  -0.000016   0.010980
              37         38         39         40         41
     1  Pt  -0.003688   0.013071   0.000009   0.000009  -0.000952
     2  Cl   0.000018   0.000091   0.000000   0.000000  -0.000001
     3  Cl  -0.000274  -0.001374  -0.000478  -0.000298   0.000458
     4  Sn   0.000075   0.001057   0.000051  -0.000008  -0.000088
     5  Cl   0.000063  -0.000001   0.000002   0.000002   0.000000
     6  Cl  -0.000006  -0.000001   0.000000   0.000000   0.000000
     7  Cl   0.000001  -0.000001   0.000000   0.000000   0.000000
     8  As   0.021344  -0.000862   0.001812   0.004103   0.001260
     9  C   -0.000803   0.000243  -0.000162  -0.000002   0.000001
    10  C    0.000195   0.000462   0.000032   0.000004   0.000001
    11  C   -0.000013  -0.000631   0.000046   0.000000   0.000000
    12  C    0.000003   0.000134  -0.000003   0.000000   0.000000
    13  H    0.000008   0.000061  -0.000001   0.000000   0.000000
    14  C    0.000000  -0.000200   0.000002   0.000000   0.000000
    15  H    0.000000   0.000002   0.000000   0.000000   0.000000
    16  C    0.000000   0.000065  -0.000003   0.000000   0.000000
    17  H    0.000000   0.000000   0.000000   0.000000   0.000000
    18  H    0.000000   0.000000   0.000000   0.000000   0.000000
    19  H    0.000000   0.000000   0.000000   0.000000   0.000000
    20  C    0.022343  -0.000238   0.000002  -0.000155   0.000002
    21  C   -0.004331   0.000348   0.000000   0.000020   0.000000
    22  C    0.004989  -0.000489   0.000000   0.000021   0.000000
    23  C   -0.000398   0.000009   0.000000   0.000002   0.000000
    24  H    0.000156   0.000008   0.000000   0.000000   0.000000
    25  C    0.005572  -0.000206   0.000000  -0.000015   0.000000
    26  H   -0.001732   0.000011   0.000000   0.000001   0.000000
    27  C   -0.000414   0.000018   0.000000   0.000000   0.000000
    28  H   -0.000004   0.000000   0.000000   0.000000   0.000000
    29  H    0.000059   0.000000   0.000000   0.000000   0.000000
    30  H    0.000000   0.000000   0.000000   0.000000   0.000000
    31  C    0.018379  -0.277344  -0.020388  -0.021737   0.019252
    32  C    0.004664  -0.076530  -0.010343   0.010045  -0.025306
    33  C    0.372690  -0.192950   0.008439  -0.031490  -0.021752
    34  C    0.001790   0.319691   0.435539  -0.007537  -0.006206
    35  H   -0.000023  -0.011168  -0.000684   0.000002  -0.000016
    36  C   -0.023600   0.226049  -0.009215   0.441911   0.010980
    37  H    0.479262  -0.006919   0.000002  -0.000305  -0.000015
    38  C   -0.006919   6.140682  -0.014921  -0.002682   0.415132
    39  H    0.000002  -0.014921   0.457847  -0.000020   0.000030
    40  H   -0.000305  -0.002682  -0.000020   0.459052   0.000295
    41  H   -0.000015   0.415132   0.000030   0.000295   0.447456
 Mulliken charges:
               1
     1  Pt   0.054461
     2  Cl  -0.547134
     3  Cl  -0.528366
     4  Sn   0.329166
     5  Cl  -0.240869
     6  Cl  -0.232897
     7  Cl  -0.246498
     8  As   0.728071
     9  C   -0.217194
    10  C    0.072940
    11  C    0.137844
    12  C   -0.048723
    13  H    0.096339
    14  C   -0.206101
    15  H    0.106143
    16  C   -0.547998
    17  H    0.150769
    18  H    0.148417
    19  H    0.160433
    20  C   -0.179830
    21  C   -0.113578
    22  C    0.289077
    23  C   -0.138953
    24  H    0.077277
    25  C   -0.077816
    26  H    0.100786
    27  C   -0.541040
    28  H    0.147417
    29  H    0.148957
    30  H    0.158090
    31  C   -0.002626
    32  C   -0.011218
    33  C   -0.087555
    34  C    0.017547
    35  H    0.113507
    36  C   -0.109797
    37  H    0.110910
    38  C   -0.530617
    39  H    0.152402
    40  H    0.148784
    41  H    0.159471
 Sum of Mulliken charges =  -1.00000
 Mulliken charges with hydrogens summed into heavy atoms:
               1
     1  Pt   0.054461
     2  Cl  -0.547134
     3  Cl  -0.528366
     4  Sn   0.329166
     5  Cl  -0.240869
     6  Cl  -0.232897
     7  Cl  -0.246498
     8  As   0.728071
     9  C   -0.217194
    10  C    0.169279
    11  C    0.243988
    12  C    0.102047
    14  C   -0.057683
    16  C   -0.387565
    20  C   -0.179830
    21  C   -0.036301
    22  C    0.389862
    23  C    0.008464
    25  C    0.071141
    27  C   -0.382951
    31  C   -0.002626
    32  C    0.102290
    33  C    0.023356
    34  C    0.169950
    36  C    0.038987
    38  C   -0.371147
 Electronic spatial extent (au):  <R**2>=          15276.4506
 Charge=             -1.0000 electrons
 Dipole moment (field-independent basis, Debye):
    X=             15.5572    Y=             11.1820    Z=              1.4812  Tot=             19.2161
 Quadrupole moment (field-independent basis, Debye-Ang):
   XX=           -285.5880   YY=           -288.1208   ZZ=           -228.5372
   XY=              7.5666   XZ=             -0.4256   YZ=             -5.6942
 Traceless Quadrupole moment (field-independent basis, Debye-Ang):
   XX=            -18.1727   YY=            -20.7055   ZZ=             38.8781
   XY=              7.5666   XZ=             -0.4256   YZ=             -5.6942
 Octapole moment (field-independent basis, Debye-Ang**2):
  XXX=            108.8356  YYY=             55.3298  ZZZ=              1.1459  XYY=             18.8725
  XXY=            -50.4776  XXZ=             -6.4313  XZZ=              8.5486  YZZ=             -3.2515
  YYZ=              3.4314  XYZ=             -1.2738
 Hexadecapole moment (field-independent basis, Debye-Ang**3):
 XXXX=          -9978.5318 YYYY=          -5567.9073 ZZZZ=          -4402.2159 XXXY=           -220.5518
 XXXZ=             -9.9106 YYYX=            253.4059 YYYZ=            -46.3195 ZZZX=             21.4438
 ZZZY=              4.6709 XXYY=          -2672.2078 XXZZ=          -2582.8500 YYZZ=          -1534.1167
 XXYZ=             -1.6605 YYXZ=            -32.7109 ZZXY=             43.8254
 N-N= 8.410180017762D+03 E-N=-8.392546228132D+04  KE= 2.790575493979D+04
 Calculating spin-rotation constants.
 Leave Link  601 at Thu May 23 03:30:42 2019, MaxMem=  2013265920 cpu:       209.8
 (Enter /scr/programs/g09/l9999.exe)
 1\1\GINC-NEQC17\SP\RPBEPBE\Gen\C18H15As1Cl5Pt1Sn1(1-)\DIEGO\23-May-201
 9\0\\#PBEPBE/gen scf=(maxcycle=500,conver=4) NMR=GIAO Scrf=(solvent=Di
 chloromethane)\\estrutura 30\\-1,1\Pt,0,-0.421836,-1.386599,-0.187166\
 Cl,0,-2.316129,-2.918473,-0.297269\Cl,0,1.173303,-3.208512,-0.332566\S
 n,0,-2.333782,0.346231,-0.034563\Cl,0,-1.847137,2.733201,0.053931\Cl,0
 ,-3.827614,0.23686,1.868113\Cl,0,-3.931625,0.425819,-1.853995\As,0,1.3
 3157,0.222761,0.051622\C,0,1.38189,1.543166,-1.389896\C,0,2.122327,2.7
 35736,-1.305826\C,0,0.711158,1.223175,-2.58162\C,0,2.148302,3.621371,-
 2.388452\H,0,2.693259,2.985098,-0.408307\C,0,0.777801,2.093225,-3.6761
 13\H,0,0.141524,0.292225,-2.656843\C,0,1.483729,3.297263,-3.578362\H,0
 ,2.69355,4.566642,-2.300672\H,0,0.267571,1.828619,-4.606168\H,0,1.5222
 2,3.986429,-4.42654\C,0,1.162616,1.068028,1.811466\C,0,1.367829,2.4299
 65,2.07226\C,0,0.807583,0.208112,2.866489\C,0,1.241572,2.920375,3.3764
 94\H,0,1.607269,3.127988,1.271285\C,0,0.685658,0.702695,4.168727\H,0,0
 .609925,-0.849743,2.671482\C,0,0.90601,2.059434,4.425874\H,0,1.401691,
 3.984764,3.566196\H,0,0.406982,0.02444,4.97946\H,0,0.806282,2.44755,5.
 442577\C,0,3.18651,-0.410471,0.019019\C,0,3.772298,-0.690765,-1.225518
 \C,0,3.929734,-0.583651,1.194409\C,0,5.09711,-1.130081,-1.291588\H,0,3
 .202651,-0.560199,-2.149571\C,0,5.256781,-1.025795,1.122887\H,0,3.4868
 69,-0.37011,2.169873\C,0,5.842069,-1.296963,-0.117845\H,0,5.547428,-1.
 340395,-2.265554\H,0,5.833893,-1.154714,2.043032\H,0,6.879965,-1.63665
 6,-0.170742\\Version=EM64L-G09RevD.01\State=1-A\HF=-28316.5915656\RMSD
 =4.640e-05\Dipole=6.1206732,4.399323,0.5827618\Quadrupole=-13.5109207,
 -15.3940292,28.9049499,5.6256,-0.31644,-4.2334681\PG=C01 [X(C18H15As1C
 l5Pt1Sn1)]\\@


 LENDING MONEY TO FRIENDS CAUSES THEM TO LOSE THEIR MEMORIES.

    --  PETER'S THEORY OF RECIPROCAL INHIBITION OF FISCAL RECALL
 Job cpu time:       0 days 11 hours 49 minutes 52.7 seconds.
 File lengths (MBytes):  RWF=    878 Int=      0 D2E=      0 Chk=     64 Scr=      1
 Normal termination of Gaussian 09 at Thu May 23 03:30:43 2019.
