 Entering Gaussian System, Link 0=g09
 Input=estrutura102.com
 Output=estrutura102.log
 Initial command:
 /scr/programas/g09/l1.exe "/scr/nqtcm/Gau-25128.inp" -scrdir="/scr/nqtcm/"
 Entering Link 1 = /scr/programas/g09/l1.exe PID=     25131.
  
 Copyright (c) 1988,1990,1992,1993,1995,1998,2003,2009,2013,
            Gaussian, Inc.  All Rights Reserved.
  
 This is part of the Gaussian(R) 09 program.  It is based on
 the Gaussian(R) 03 system (copyright 2003, Gaussian, Inc.),
 the Gaussian(R) 98 system (copyright 1998, Gaussian, Inc.),
 the Gaussian(R) 94 system (copyright 1995, Gaussian, Inc.),
 the Gaussian 92(TM) system (copyright 1992, Gaussian, Inc.),
 the Gaussian 90(TM) system (copyright 1990, Gaussian, Inc.),
 the Gaussian 88(TM) system (copyright 1988, Gaussian, Inc.),
 the Gaussian 86(TM) system (copyright 1986, Carnegie Mellon
 University), and the Gaussian 82(TM) system (copyright 1983,
 Carnegie Mellon University). Gaussian is a federally registered
 trademark of Gaussian, Inc.
  
 This software contains proprietary and confidential information,
 including trade secrets, belonging to Gaussian, Inc.
  
 This software is provided under written license and may be
 used, copied, transmitted, or stored only in accord with that
 written license.
  
 The following legend is applicable only to US Government
 contracts under FAR:
  
                    RESTRICTED RIGHTS LEGEND
  
 Use, reproduction and disclosure by the US Government is
 subject to restrictions as set forth in subparagraphs (a)
 and (c) of the Commercial Computer Software - Restricted
 Rights clause in FAR 52.227-19.
  
 Gaussian, Inc.
 340 Quinnipiac St., Bldg. 40, Wallingford CT 06492
  
  
 ---------------------------------------------------------------
 Warning -- This program may not be used in any manner that
 competes with the business of Gaussian, Inc. or will provide
 assistance to any competitor of Gaussian, Inc.  The licensee
 of this program is prohibited from giving any competitor of
 Gaussian, Inc. access to this program.  By using this program,
 the user acknowledges that Gaussian, Inc. is engaged in the
 business of creating and licensing software in the field of
 computational chemistry and represents and warrants to the
 licensee that it is not a competitor of Gaussian, Inc. and that
 it will not use this program in any manner prohibited above.
 ---------------------------------------------------------------
  

 Cite this work as:
 Gaussian 09, Revision D.01,
 M. J. Frisch, G. W. Trucks, H. B. Schlegel, G. E. Scuseria, 
 M. A. Robb, J. R. Cheeseman, G. Scalmani, V. Barone, B. Mennucci, 
 G. A. Petersson, H. Nakatsuji, M. Caricato, X. Li, H. P. Hratchian, 
 A. F. Izmaylov, J. Bloino, G. Zheng, J. L. Sonnenberg, M. Hada, 
 M. Ehara, K. Toyota, R. Fukuda, J. Hasegawa, M. Ishida, T. Nakajima, 
 Y. Honda, O. Kitao, H. Nakai, T. Vreven, J. A. Montgomery, Jr., 
 J. E. Peralta, F. Ogliaro, M. Bearpark, J. J. Heyd, E. Brothers, 
 K. N. Kudin, V. N. Staroverov, T. Keith, R. Kobayashi, J. Normand, 
 K. Raghavachari, A. Rendell, J. C. Burant, S. S. Iyengar, J. Tomasi, 
 M. Cossi, N. Rega, J. M. Millam, M. Klene, J. E. Knox, J. B. Cross, 
 V. Bakken, C. Adamo, J. Jaramillo, R. Gomperts, R. E. Stratmann, 
 O. Yazyev, A. J. Austin, R. Cammi, C. Pomelli, J. W. Ochterski, 
 R. L. Martin, K. Morokuma, V. G. Zakrzewski, G. A. Voth, 
 P. Salvador, J. J. Dannenberg, S. Dapprich, A. D. Daniels, 
 O. Farkas, J. B. Foresman, J. V. Ortiz, J. Cioslowski, 
 and D. J. Fox, Gaussian, Inc., Wallingford CT, 2013.
 
 ******************************************
 Gaussian 09:  EM64L-G09RevD.01 24-Apr-2013
                24-Nov-2019 
 ******************************************
 %mem=7Gb
 %nproc=4
 Will use up to    4 processors via shared memory.
 ----------------------------------------------------------------------
 #PBEPBE/gen scf=(maxcycle=500,conver=3) NMR=GIAO Scrf=(solvent=Dichlor
 omethane)
 ----------------------------------------------------------------------
 1/38=1/1;
 2/12=2,17=6,18=5,40=1/2;
 3/5=7,11=2,16=1,25=1,30=1,70=2201,72=9,74=1009/1,2,8,3;
 4//1;
 5/5=2,6=3,7=500,38=5,53=9/2;
 8/6=1,10=90,11=11/1;
 10/13=100,45=16/2;
 6/7=2,8=2,9=2,10=2,28=1/1;
 99/9=1/99;
 Leave Link    1 at Sun Nov 24 20:53:31 2019, MaxMem=   939524096 cpu:         0.2
 (Enter /scr/programas/g09/l101.exe)
 -------------
 estrutura 102
 -------------
 Symbolic Z-matrix:
 Charge =  0 Multiplicity = 1
 Pt                    0.0976    0.32096  -0.15027 
 P                     2.37661   1.29839  -0.05702 
 P                     0.63057  -1.93011   0.04382 
 C                     2.6365    2.14718   1.55846 
 C                     3.78918   2.93105   1.76941 
 C                     1.73349   1.96321   2.61531 
 C                     4.00671   3.54781   3.00318 
 H                     4.5279    3.05541   0.97263 
 C                     1.96532   2.56176   3.859 
 H                     0.84994   1.3368    2.47254 
 C                     3.09366   3.36507   4.05041 
 H                     4.89486   4.16907   3.14821 
 H                     1.26115   2.39831   4.67808 
 H                     3.26797   3.84245   5.01824 
 C                     2.51666   2.58848  -1.37453 
 C                     2.40383   2.18854  -2.71892 
 C                     2.66138   3.9566   -1.09018 
 C                     2.48228   3.12348  -3.75347 
 H                     2.23494   1.14095  -2.97185 
 C                     2.73244   4.89197  -2.12773 
 H                     2.69013   4.31072  -0.05904 
 C                     2.65423   4.47996  -3.46083 
 H                     2.39891   2.78863  -4.79037 
 H                     2.84104   5.9523   -1.88633 
 H                     2.7106    5.21365  -4.26865 
 C                     3.95793   0.33215  -0.18945 
 C                     4.45361  -0.29255   0.97056 
 C                     4.6874    0.20724  -1.38466 
 C                     5.64683  -1.01776   0.93622 
 H                     3.91669  -0.20122   1.916 
 C                     5.87974  -0.52174  -1.41659 
 H                     4.34891   0.69235  -2.29975 
 C                     6.3646   -1.13682  -0.25829 
 H                     6.0167   -1.48815   1.85115 
 H                     6.43352  -0.60197  -2.35589 
 H                     7.30112  -1.69936  -0.28502 
 C                    -0.67926  -3.22672  -0.1328 
 C                    -1.05541  -4.0801    0.91611 
 C                    -1.24525  -3.41537  -1.40659 
 C                    -1.9803   -5.10521   0.69204 
 H                    -0.632    -3.95476   1.91314 
 C                    -2.17094  -4.43643  -1.62461 
 H                    -0.96009  -2.76817  -2.23886 
 C                    -2.53971  -5.28626  -0.57555 
 H                    -2.26485  -5.76213   1.51829 
 H                    -2.60463  -4.56752  -2.61915 
 H                    -3.26256  -6.0877   -0.74741 
 C                     1.33578  -2.21928   1.72187 
 C                     2.58348  -2.81487   1.96095 
 C                     0.56227  -1.79239   2.82 
 C                     3.04215  -2.99261   3.27096 
 H                     3.21822  -3.12686   1.13225 
 C                     1.0229   -1.97566   4.12504 
 H                    -0.41112  -1.32424   2.6569 
 C                     2.26505  -2.57691   4.35521 
 H                     4.01819  -3.45338   3.44046 
 H                     0.40879  -1.64344   4.9663 
 H                     2.62689  -2.71705   5.37652 
 C                     1.7967   -2.54991  -1.24415 
 C                     2.34     -3.84847  -1.16947 
 C                     2.01559  -1.78975  -2.40185 
 C                     3.12817  -4.34267  -2.20988 
 H                     2.13248  -4.48939  -0.31043 
 C                     2.78722  -2.29549  -3.45315 
 H                     1.55203  -0.80452  -2.48987 
 C                     3.35659  -3.56805  -3.35271 
 H                     3.55493  -5.34677  -2.13285 
 H                     2.94128  -1.69178  -4.35107 
 H                     3.96547  -3.96297  -4.16996 
 Sn                   -2.57386   0.14728  -0.07491 
 C                    -4.04178   1.74403   0.23849 
 C                    -4.4743    2.07335   1.53025 
 C                    -4.54691   2.46501  -0.85645 
 C                    -5.39605   3.10934   1.72876 
 H                    -4.10769   1.51391   2.39622 
 C                    -5.46916   3.49987  -0.65725 
 H                    -4.23331   2.21943  -1.87324 
 C                    -5.89421   3.82496   0.6341 
 H                    -5.7289    3.35297   2.7412 
 H                    -5.85694   4.05197  -1.51871 
 H                    -6.61561   4.63216   0.78823 
 Br                   -0.67353   2.78039  -0.24676 
 Br                   -3.45544  -1.43414   1.83316 
 Br                   -3.58283  -0.7805   -2.3103 
 
 NAtoms=     84 NQM=       84 NQMF=       0 NMMI=      0 NMMIF=      0
                NMic=       0 NMicF=      0.
                    Isotopes and Nuclear Properties:
 (Nuclear quadrupole moments (NQMom) in fm**2, nuclear magnetic moments (NMagM)
  in nuclear magnetons)

  Atom         1           2           3           4           5           6           7           8           9          10
 IAtWgt=         195          31          31          12          12          12          12           1          12           1
 AtmWgt= 194.9648000  30.9737634  30.9737634  12.0000000  12.0000000  12.0000000  12.0000000   1.0078250  12.0000000   1.0078250
 NucSpn=           1           1           1           0           0           0           0           1           0           1
 AtZEff=   0.0000000   0.0000000   0.0000000   0.0000000   0.0000000   0.0000000   0.0000000   0.0000000   0.0000000   0.0000000
 NQMom=    0.0000000   0.0000000   0.0000000   0.0000000   0.0000000   0.0000000   0.0000000   0.0000000   0.0000000   0.0000000
 NMagM=    0.6095000   1.1316000   1.1316000   0.0000000   0.0000000   0.0000000   0.0000000   2.7928460   0.0000000   2.7928460
 AtZNuc=  78.0000000  15.0000000  15.0000000   6.0000000   6.0000000   6.0000000   6.0000000   1.0000000   6.0000000   1.0000000

  Atom        11          12          13          14          15          16          17          18          19          20
 IAtWgt=          12           1           1           1          12          12          12          12           1          12
 AtmWgt=  12.0000000   1.0078250   1.0078250   1.0078250  12.0000000  12.0000000  12.0000000  12.0000000   1.0078250  12.0000000
 NucSpn=           0           1           1           1           0           0           0           0           1           0
 AtZEff=   0.0000000   0.0000000   0.0000000   0.0000000   0.0000000   0.0000000   0.0000000   0.0000000   0.0000000   0.0000000
 NQMom=    0.0000000   0.0000000   0.0000000   0.0000000   0.0000000   0.0000000   0.0000000   0.0000000   0.0000000   0.0000000
 NMagM=    0.0000000   2.7928460   2.7928460   2.7928460   0.0000000   0.0000000   0.0000000   0.0000000   2.7928460   0.0000000
 AtZNuc=   6.0000000   1.0000000   1.0000000   1.0000000   6.0000000   6.0000000   6.0000000   6.0000000   1.0000000   6.0000000

  Atom        21          22          23          24          25          26          27          28          29          30
 IAtWgt=           1          12           1           1           1          12          12          12          12           1
 AtmWgt=   1.0078250  12.0000000   1.0078250   1.0078250   1.0078250  12.0000000  12.0000000  12.0000000  12.0000000   1.0078250
 NucSpn=           1           0           1           1           1           0           0           0           0           1
 AtZEff=   0.0000000   0.0000000   0.0000000   0.0000000   0.0000000   0.0000000   0.0000000   0.0000000   0.0000000   0.0000000
 NQMom=    0.0000000   0.0000000   0.0000000   0.0000000   0.0000000   0.0000000   0.0000000   0.0000000   0.0000000   0.0000000
 NMagM=    2.7928460   0.0000000   2.7928460   2.7928460   2.7928460   0.0000000   0.0000000   0.0000000   0.0000000   2.7928460
 AtZNuc=   1.0000000   6.0000000   1.0000000   1.0000000   1.0000000   6.0000000   6.0000000   6.0000000   6.0000000   1.0000000

  Atom        31          32          33          34          35          36          37          38          39          40
 IAtWgt=          12           1          12           1           1           1          12          12          12          12
 AtmWgt=  12.0000000   1.0078250  12.0000000   1.0078250   1.0078250   1.0078250  12.0000000  12.0000000  12.0000000  12.0000000
 NucSpn=           0           1           0           1           1           1           0           0           0           0
 AtZEff=   0.0000000   0.0000000   0.0000000   0.0000000   0.0000000   0.0000000   0.0000000   0.0000000   0.0000000   0.0000000
 NQMom=    0.0000000   0.0000000   0.0000000   0.0000000   0.0000000   0.0000000   0.0000000   0.0000000   0.0000000   0.0000000
 NMagM=    0.0000000   2.7928460   0.0000000   2.7928460   2.7928460   2.7928460   0.0000000   0.0000000   0.0000000   0.0000000
 AtZNuc=   6.0000000   1.0000000   6.0000000   1.0000000   1.0000000   1.0000000   6.0000000   6.0000000   6.0000000   6.0000000

  Atom        41          42          43          44          45          46          47          48          49          50
 IAtWgt=           1          12           1          12           1           1           1          12          12          12
 AtmWgt=   1.0078250  12.0000000   1.0078250  12.0000000   1.0078250   1.0078250   1.0078250  12.0000000  12.0000000  12.0000000
 NucSpn=           1           0           1           0           1           1           1           0           0           0
 AtZEff=   0.0000000   0.0000000   0.0000000   0.0000000   0.0000000   0.0000000   0.0000000   0.0000000   0.0000000   0.0000000
 NQMom=    0.0000000   0.0000000   0.0000000   0.0000000   0.0000000   0.0000000   0.0000000   0.0000000   0.0000000   0.0000000
 NMagM=    2.7928460   0.0000000   2.7928460   0.0000000   2.7928460   2.7928460   2.7928460   0.0000000   0.0000000   0.0000000
 AtZNuc=   1.0000000   6.0000000   1.0000000   6.0000000   1.0000000   1.0000000   1.0000000   6.0000000   6.0000000   6.0000000

  Atom        51          52          53          54          55          56          57          58          59          60
 IAtWgt=          12           1          12           1          12           1           1           1          12          12
 AtmWgt=  12.0000000   1.0078250  12.0000000   1.0078250  12.0000000   1.0078250   1.0078250   1.0078250  12.0000000  12.0000000
 NucSpn=           0           1           0           1           0           1           1           1           0           0
 AtZEff=   0.0000000   0.0000000   0.0000000   0.0000000   0.0000000   0.0000000   0.0000000   0.0000000   0.0000000   0.0000000
 NQMom=    0.0000000   0.0000000   0.0000000   0.0000000   0.0000000   0.0000000   0.0000000   0.0000000   0.0000000   0.0000000
 NMagM=    0.0000000   2.7928460   0.0000000   2.7928460   0.0000000   2.7928460   2.7928460   2.7928460   0.0000000   0.0000000
 AtZNuc=   6.0000000   1.0000000   6.0000000   1.0000000   6.0000000   1.0000000   1.0000000   1.0000000   6.0000000   6.0000000

  Atom        61          62          63          64          65          66          67          68          69          70
 IAtWgt=          12          12           1          12           1          12           1           1           1         118
 AtmWgt=  12.0000000  12.0000000   1.0078250  12.0000000   1.0078250  12.0000000   1.0078250   1.0078250   1.0078250 117.9018000
 NucSpn=           0           0           1           0           1           0           1           1           1           0
 AtZEff=   0.0000000   0.0000000   0.0000000   0.0000000   0.0000000   0.0000000   0.0000000   0.0000000   0.0000000   0.0000000
 NQMom=    0.0000000   0.0000000   0.0000000   0.0000000   0.0000000   0.0000000   0.0000000   0.0000000   0.0000000   0.0000000
 NMagM=    0.0000000   0.0000000   2.7928460   0.0000000   2.7928460   0.0000000   2.7928460   2.7928460   2.7928460   0.0000000
 AtZNuc=   6.0000000   6.0000000   1.0000000   6.0000000   1.0000000   6.0000000   1.0000000   1.0000000   1.0000000  50.0000000

  Atom        71          72          73          74          75          76          77          78          79          80
 IAtWgt=          12          12          12          12           1          12           1          12           1           1
 AtmWgt=  12.0000000  12.0000000  12.0000000  12.0000000   1.0078250  12.0000000   1.0078250  12.0000000   1.0078250   1.0078250
 NucSpn=           0           0           0           0           1           0           1           0           1           1
 AtZEff=   0.0000000   0.0000000   0.0000000   0.0000000   0.0000000   0.0000000   0.0000000   0.0000000   0.0000000   0.0000000
 NQMom=    0.0000000   0.0000000   0.0000000   0.0000000   0.0000000   0.0000000   0.0000000   0.0000000   0.0000000   0.0000000
 NMagM=    0.0000000   0.0000000   0.0000000   0.0000000   2.7928460   0.0000000   2.7928460   0.0000000   2.7928460   2.7928460
 AtZNuc=   6.0000000   6.0000000   6.0000000   6.0000000   1.0000000   6.0000000   1.0000000   6.0000000   1.0000000   1.0000000

  Atom        81          82          83          84
 IAtWgt=           1          79          79          79
 AtmWgt=   1.0078250  78.9183361  78.9183361  78.9183361
 NucSpn=           1           3           3           3
 AtZEff=   0.0000000   0.0000000   0.0000000   0.0000000
 NQMom=    0.0000000  31.3000000  31.3000000  31.3000000
 NMagM=    2.7928460   2.1063990   2.1063990   2.1063990
 AtZNuc=   1.0000000  35.0000000  35.0000000  35.0000000
 Leave Link  101 at Sun Nov 24 20:53:31 2019, MaxMem=   939524096 cpu:         0.6
 (Enter /scr/programas/g09/l202.exe)
 Stoichiometry    C42H35Br3P2PtSn
 Framework group  C1[X(C42H35Br3P2PtSn)]
 Deg. of freedom   246
 Full point group                 C1      NOp   1
 Largest Abelian subgroup         C1      NOp   1
 Largest concise Abelian subgroup C1      NOp   1
                         Standard orientation:                         
 ---------------------------------------------------------------------
 Center     Atomic      Atomic             Coordinates (Angstroms)
 Number     Number       Type             X           Y           Z
 ---------------------------------------------------------------------
      1         78           0       -0.097601   -0.320955   -0.150271
      2         15           0       -2.376613   -1.298392   -0.057015
      3         15           0       -0.630570    1.930111    0.043816
      4          6           0       -2.636496   -2.147185    1.558458
      5          6           0       -3.789183   -2.931049    1.769409
      6          6           0       -1.733486   -1.963206    2.615306
      7          6           0       -4.006711   -3.547807    3.003180
      8          1           0       -4.527900   -3.055413    0.972633
      9          6           0       -1.965322   -2.561761    3.859001
     10          1           0       -0.849941   -1.336795    2.472536
     11          6           0       -3.093658   -3.365074    4.050406
     12          1           0       -4.894856   -4.169065    3.148208
     13          1           0       -1.261153   -2.398306    4.678082
     14          1           0       -3.267970   -3.842449    5.018244
     15          6           0       -2.516655   -2.588476   -1.374525
     16          6           0       -2.403833   -2.188545   -2.718916
     17          6           0       -2.661384   -3.956597   -1.090177
     18          6           0       -2.482275   -3.123476   -3.753467
     19          1           0       -2.234937   -1.140947   -2.971853
     20          6           0       -2.732441   -4.891967   -2.127731
     21          1           0       -2.690126   -4.310718   -0.059043
     22          6           0       -2.654232   -4.479955   -3.460832
     23          1           0       -2.398907   -2.788628   -4.790366
     24          1           0       -2.841040   -5.952303   -1.886325
     25          1           0       -2.710604   -5.213646   -4.268649
     26          6           0       -3.957926   -0.332149   -0.189450
     27          6           0       -4.453612    0.292549    0.970564
     28          6           0       -4.687395   -0.207242   -1.384661
     29          6           0       -5.646827    1.017764    0.936217
     30          1           0       -3.916686    0.201221    1.915996
     31          6           0       -5.879744    0.521744   -1.416594
     32          1           0       -4.348914   -0.692346   -2.299749
     33          6           0       -6.364596    1.136826   -0.258285
     34          1           0       -6.016695    1.488153    1.851150
     35          1           0       -6.433521    0.601970   -2.355889
     36          1           0       -7.301120    1.699357   -0.285019
     37          6           0        0.679260    3.226721   -0.132801
     38          6           0        1.055412    4.080095    0.916105
     39          6           0        1.245252    3.415370   -1.406594
     40          6           0        1.980304    5.105206    0.692036
     41          1           0        0.631999    3.954755    1.913135
     42          6           0        2.170940    4.436431   -1.624609
     43          1           0        0.960094    2.768167   -2.238858
     44          6           0        2.539708    5.286262   -0.575550
     45          1           0        2.264847    5.762133    1.518286
     46          1           0        2.604626    4.567515   -2.619154
     47          1           0        3.262559    6.087698   -0.747407
     48          6           0       -1.335780    2.219282    1.721870
     49          6           0       -2.583484    2.814874    1.960953
     50          6           0       -0.562274    1.792389    2.819999
     51          6           0       -3.042147    2.992605    3.270959
     52          1           0       -3.218223    3.126859    1.132248
     53          6           0       -1.022895    1.975662    4.125035
     54          1           0        0.411119    1.324236    2.656904
     55          6           0       -2.265054    2.576909    4.355214
     56          1           0       -4.018189    3.453385    3.440457
     57          1           0       -0.408789    1.643443    4.966296
     58          1           0       -2.626888    2.717045    5.376515
     59          6           0       -1.796698    2.549910   -1.244154
     60          6           0       -2.340002    3.848465   -1.169474
     61          6           0       -2.015594    1.789748   -2.401850
     62          6           0       -3.128173    4.342671   -2.209877
     63          1           0       -2.132480    4.489390   -0.310432
     64          6           0       -2.787216    2.295487   -3.453154
     65          1           0       -1.552026    0.804521   -2.489866
     66          6           0       -3.356594    3.568045   -3.352709
     67          1           0       -3.554931    5.346772   -2.132851
     68          1           0       -2.941277    1.691780   -4.351068
     69          1           0       -3.965464    3.962974   -4.169956
     70         50           0        2.573863   -0.147280   -0.074914
     71          6           0        4.041785   -1.744026    0.238491
     72          6           0        4.474295   -2.073354    1.530251
     73          6           0        4.546912   -2.465013   -0.856453
     74          6           0        5.396053   -3.109340    1.728755
     75          1           0        4.107686   -1.513909    2.396224
     76          6           0        5.469162   -3.499875   -0.657245
     77          1           0        4.233311   -2.219433   -1.873240
     78          6           0        5.894206   -3.824962    0.634095
     79          1           0        5.728896   -3.352975    2.741202
     80          1           0        5.856941   -4.051969   -1.518708
     81          1           0        6.615608   -4.632163    0.788226
     82         35           0        0.673529   -2.780391   -0.246758
     83         35           0        3.455435    1.434142    1.833162
     84         35           0        3.582831    0.780497   -2.310296
 ---------------------------------------------------------------------
 Rotational constants (GHZ):      0.0524212      0.0392021      0.0326430
 Leave Link  202 at Sun Nov 24 20:53:31 2019, MaxMem=   939524096 cpu:         0.0
 (Enter /scr/programas/g09/l301.exe)
 General basis read from cards:  (5D, 7F)
 Centers:       8     10     12     13     14     19     21     23     24     25
 Centers:      30     32     34     35     36     41     43     45     46     47
 Centers:      52     54     56     57     58     63     65     67     68     69
 Centers:      75     77     79     80     81
 S 5 1.00
     Exponent=  2.8295215633D+02 Coefficients=  4.3000000000D-04
     Exponent=  8.7062201949D+01 Coefficients=  5.1000000000D-04
     Exponent=  2.6788369830D+01 Coefficients=  6.1600000000D-03
     Exponent=  8.2425753324D+00 Coefficients=  1.3030000000D-02
     Exponent=  2.5361770254D+00 Coefficients=  9.9490000000D-02
 S 1 1.00
     Exponent=  7.8036216165D-01 Coefficients=  1.0000000000D+00
 S 1 1.00
     Exponent=  2.4011143435D-01 Coefficients=  1.0000000000D+00
 P 1 1.00
     Exponent=  8.8150000000D-01 Coefficients=  1.0000000000D+00
 P 1 1.00
     Exponent=  1.7989200000D-01 Coefficients=  1.0000000000D+00
 ****
 Centers:       4      5      6      7      9     11     15     16     17     18
 Centers:      20     22     26     27     28     29     31     33     37     38
 Centers:      39     40     42     44     48     49     50     51     53     55
 Centers:      59     60     61     62     64     66     71     72     73     74
 Centers:      76     78
 S 6 1.00
     Exponent=  8.8461235339D+03 Coefficients=  5.3000000000D-04
     Exponent=  2.9487078446D+03 Coefficients=  7.7000000000D-04
     Exponent=  9.8290261488D+02 Coefficients=  4.0500000000D-03
     Exponent=  3.2763420496D+02 Coefficients=  1.4030000000D-02
     Exponent=  1.0921140165D+02 Coefficients=  5.3450000000D-02
     Exponent=  3.6403800551D+01 Coefficients=  1.7027000000D-01
 S 1 1.00
     Exponent=  1.2134600184D+01 Coefficients=  1.0000000000D+00
 S 1 1.00
     Exponent=  4.0448667279D+00 Coefficients=  1.0000000000D+00
 S 1 1.00
     Exponent=  1.3482889093D+00 Coefficients=  1.0000000000D+00
 S 1 1.00
     Exponent=  4.4942963643D-01 Coefficients=  1.0000000000D+00
 S 1 1.00
     Exponent=  1.4980987881D-01 Coefficients=  1.0000000000D+00
 P 4 1.00
     Exponent=  3.7294093393D+01 Coefficients=  3.9600000000D-03
     Exponent=  1.1475105659D+01 Coefficients=  1.8890000000D-02
     Exponent=  3.5308017414D+00 Coefficients=  9.4610000000D-02
     Exponent=  1.0864005358D+00 Coefficients=  3.1889000000D-01
 P 1 1.00
     Exponent=  3.3427708794D-01 Coefficients=  1.0000000000D+00
 P 1 1.00
     Exponent=  1.0285448860D-01 Coefficients=  1.0000000000D+00
 D 1 1.00
     Exponent=  4.7750000000D-01 Coefficients=  1.0000000000D+00
 D 1 1.00
     Exponent=  1.1998000000D-01 Coefficients=  1.0000000000D+00
 ****
 Centers:       2      3
 S 7 1.00
     Exponent=  5.9538004301D+04 Coefficients=  9.5000000000D-04
     Exponent=  2.1650183382D+04 Coefficients=  6.1000000000D-04
     Exponent=  7.8727939572D+03 Coefficients=  3.7500000000D-03
     Exponent=  2.8628341663D+03 Coefficients=  9.6300000000D-03
     Exponent=  1.0410306059D+03 Coefficients=  3.2430000000D-02
     Exponent=  3.7855658397D+02 Coefficients=  9.9500000000D-02
     Exponent=  1.3765693962D+02 Coefficients=  2.6570000000D-01
 S 1 1.00
     Exponent=  5.0057068954D+01 Coefficients=  1.0000000000D+00
 S 1 1.00
     Exponent=  1.8202570529D+01 Coefficients=  1.0000000000D+00
 S 1 1.00
     Exponent=  6.6191165560D+00 Coefficients=  1.0000000000D+00
 S 1 1.00
     Exponent=  2.4069514749D+00 Coefficients=  1.0000000000D+00
 S 1 1.00
     Exponent=  8.7525508178D-01 Coefficients=  1.0000000000D+00
 S 1 1.00
     Exponent=  3.1827457519D-01 Coefficients=  1.0000000000D+00
 S 1 1.00
     Exponent=  1.1573620916D-01 Coefficients=  1.0000000000D+00
 S 1 1.00
     Exponent=  4.2085894240D-02 Coefficients=  1.0000000000D+00
 P 5 1.00
     Exponent=  4.8799672315D+02 Coefficients=  2.1600000000D-03
     Exponent=  1.6266557438D+02 Coefficients=  9.7900000000D-03
     Exponent=  5.4221858128D+01 Coefficients=  5.4850000000D-02
     Exponent=  1.8073952709D+01 Coefficients=  2.1770000000D-01
     Exponent=  6.0246509031D+00 Coefficients=  4.8978000000D-01
 P 1 1.00
     Exponent=  2.0082169677D+00 Coefficients=  1.0000000000D+00
 P 1 1.00
     Exponent=  6.6940565590D-01 Coefficients=  1.0000000000D+00
 P 1 1.00
     Exponent=  2.2313521863D-01 Coefficients=  1.0000000000D+00
 P 1 1.00
     Exponent=  7.4378406211D-02 Coefficients=  1.0000000000D+00
 P 1 1.00
     Exponent=  2.4792802070D-02 Coefficients=  1.0000000000D+00
 D 1 1.00
     Exponent=  3.5395000000D-01 Coefficients=  1.0000000000D+00
 D 1 1.00
     Exponent=  8.9098000000D-02 Coefficients=  1.0000000000D+00
 ****
 Centers:      82     83     84
 S 7 1.00
     Exponent=  3.4867099512D+05 Coefficients=  2.4100000000D-03
     Exponent=  1.3946839805D+05 Coefficients=  1.2000000000D-04
     Exponent=  5.5787359218D+04 Coefficients=  5.8500000000D-03
     Exponent=  2.2314943687D+04 Coefficients=  8.2100000000D-03
     Exponent=  8.9259774750D+03 Coefficients=  2.4090000000D-02
     Exponent=  3.5703909900D+03 Coefficients=  5.7250000000D-02
     Exponent=  1.4281563960D+03 Coefficients=  1.4467000000D-01
 S 1 1.00
     Exponent=  5.7126255840D+02 Coefficients=  1.0000000000D+00
 S 1 1.00
     Exponent=  2.2850502336D+02 Coefficients=  1.0000000000D+00
 S 1 1.00
     Exponent=  9.1402009344D+01 Coefficients=  1.0000000000D+00
 S 1 1.00
     Exponent=  3.6560803737D+01 Coefficients=  1.0000000000D+00
 S 1 1.00
     Exponent=  1.4624321495D+01 Coefficients=  1.0000000000D+00
 S 1 1.00
     Exponent=  5.8497285980D+00 Coefficients=  1.0000000000D+00
 S 1 1.00
     Exponent=  2.3398914392D+00 Coefficients=  1.0000000000D+00
 S 1 1.00
     Exponent=  9.3595657568D-01 Coefficients=  1.0000000000D+00
 S 1 1.00
     Exponent=  3.7438263027D-01 Coefficients=  1.0000000000D+00
 S 1 1.00
     Exponent=  1.4975305211D-01 Coefficients=  1.0000000000D+00
 S 1 1.00
     Exponent=  5.9901220843D-02 Coefficients=  1.0000000000D+00
 P 5 1.00
     Exponent=  4.2715043612D+03 Coefficients=  2.0900000000D-03
     Exponent=  1.5532743132D+03 Coefficients=  5.5700000000D-03
     Exponent=  5.6482702297D+02 Coefficients=  3.0250000000D-02
     Exponent=  2.0539164472D+02 Coefficients=  1.2196000000D-01
     Exponent=  7.4687870806D+01 Coefficients=  3.7861000000D-01
 P 1 1.00
     Exponent=  2.7159225748D+01 Coefficients=  1.0000000000D+00
 P 1 1.00
     Exponent=  9.8760820901D+00 Coefficients=  1.0000000000D+00
 P 1 1.00
     Exponent=  3.5913025782D+00 Coefficients=  1.0000000000D+00
 P 1 1.00
     Exponent=  1.3059282103D+00 Coefficients=  1.0000000000D+00
 P 1 1.00
     Exponent=  4.7488298555D-01 Coefficients=  1.0000000000D+00
 P 1 1.00
     Exponent=  1.7268472202D-01 Coefficients=  1.0000000000D+00
 P 1 1.00
     Exponent=  6.2794444370D-02 Coefficients=  1.0000000000D+00
 P 1 1.00
     Exponent=  2.2834343407D-02 Coefficients=  1.0000000000D+00
 D 4 1.00
     Exponent=  1.5776624282D+02 Coefficients=  7.9800000000D-03
     Exponent=  5.2588747607D+01 Coefficients=  4.9870000000D-02
     Exponent=  1.7529582536D+01 Coefficients=  2.2405000000D-01
     Exponent=  5.8431941786D+00 Coefficients=  4.4250000000D-01
 D 1 1.00
     Exponent=  1.9477313929D+00 Coefficients=  1.0000000000D+00
 D 1 1.00
     Exponent=  6.4924379762D-01 Coefficients=  1.0000000000D+00
 F 1 1.00
     Exponent=  1.6480000000D+00 Coefficients=  1.0000000000D+00
 F 1 1.00
     Exponent=  4.5490000000D-01 Coefficients=  1.0000000000D+00
 ****
 Centers:      70
 S 8 1.00
     Exponent=  7.5448214551D+05 Coefficients=  4.4300000000D-03
     Exponent=  3.3532539800D+05 Coefficients=  1.9800000000D-03
     Exponent=  1.4903351022D+05 Coefficients=  9.0500000000D-03
     Exponent=  6.6237115655D+04 Coefficients=  4.8700000000D-03
     Exponent=  2.9438718069D+04 Coefficients=  2.0770000000D-02
     Exponent=  1.3083874697D+04 Coefficients=  3.2900000000D-02
     Exponent=  5.8150554210D+03 Coefficients=  7.7010000000D-02
     Exponent=  2.5844690760D+03 Coefficients=  1.5160000000D-01
 S 1 1.00
     Exponent=  1.1486529227D+03 Coefficients=  1.0000000000D+00
 S 1 1.00
     Exponent=  5.1051241008D+02 Coefficients=  1.0000000000D+00
 S 1 1.00
     Exponent=  2.2689440448D+02 Coefficients=  1.0000000000D+00
 S 1 1.00
     Exponent=  1.0084195755D+02 Coefficients=  1.0000000000D+00
 S 1 1.00
     Exponent=  4.4818647798D+01 Coefficients=  1.0000000000D+00
 S 1 1.00
     Exponent=  1.9919399021D+01 Coefficients=  1.0000000000D+00
 S 1 1.00
     Exponent=  8.8530662317D+00 Coefficients=  1.0000000000D+00
 S 1 1.00
     Exponent=  3.9346961030D+00 Coefficients=  1.0000000000D+00
 S 1 1.00
     Exponent=  1.7487538235D+00 Coefficients=  1.0000000000D+00
 S 1 1.00
     Exponent=  7.7722392158D-01 Coefficients=  1.0000000000D+00
 S 1 1.00
     Exponent=  3.4543285403D-01 Coefficients=  1.0000000000D+00
 S 1 1.00
     Exponent=  1.5352571290D-01 Coefficients=  1.0000000000D+00
 S 1 1.00
     Exponent=  6.8233650180D-02 Coefficients=  1.0000000000D+00
 S 1 1.00
     Exponent=  1.3478251887D-02 Coefficients=  1.0000000000D+00
 P 5 1.00
     Exponent=  1.0090658304D+04 Coefficients=  2.7500000000D-03
     Exponent=  4.0362633217D+03 Coefficients=  4.1800000000D-03
     Exponent=  1.6145053287D+03 Coefficients=  2.0890000000D-02
     Exponent=  6.4580213147D+02 Coefficients=  7.1370000000D-02
     Exponent=  2.5832085259D+02 Coefficients=  2.2613000000D-01
 P 1 1.00
     Exponent=  1.0332834104D+02 Coefficients=  1.0000000000D+00
 P 1 1.00
     Exponent=  4.1331336414D+01 Coefficients=  1.0000000000D+00
 P 1 1.00
     Exponent=  1.6532534566D+01 Coefficients=  1.0000000000D+00
 P 1 1.00
     Exponent=  6.6130138263D+00 Coefficients=  1.0000000000D+00
 P 1 1.00
     Exponent=  2.6452055305D+00 Coefficients=  1.0000000000D+00
 P 1 1.00
     Exponent=  1.0580822122D+00 Coefficients=  1.0000000000D+00
 P 1 1.00
     Exponent=  4.2323288488D-01 Coefficients=  1.0000000000D+00
 P 1 1.00
     Exponent=  1.6929315395D-01 Coefficients=  1.0000000000D+00
 P 1 1.00
     Exponent=  6.7717261581D-02 Coefficients=  1.0000000000D+00
 P 1 1.00
     Exponent=  2.7086904632D-02 Coefficients=  1.0000000000D+00
 P 1 1.00
     Exponent=  1.0834761853D-02 Coefficients=  1.0000000000D+00
 D 4 1.00
     Exponent=  5.5430250651D+02 Coefficients=  4.3700000000D-03
     Exponent=  2.0156454782D+02 Coefficients=  2.5110000000D-02
     Exponent=  7.3296199207D+01 Coefficients=  1.3316000000D-01
     Exponent=  2.6653163348D+01 Coefficients=  3.8900000000D-01
 D 1 1.00
     Exponent=  9.6920593993D+00 Coefficients=  1.0000000000D+00
 D 1 1.00
     Exponent=  3.5243852361D+00 Coefficients=  1.0000000000D+00
 D 1 1.00
     Exponent=  1.2815946313D+00 Coefficients=  1.0000000000D+00
 D 1 1.00
     Exponent=  4.6603441139D-01 Coefficients=  1.0000000000D+00
 D 1 1.00
     Exponent=  1.6946705869D-01 Coefficients=  1.0000000000D+00
 F 1 1.00
     Exponent=  1.3140000000D+00 Coefficients=  1.0000000000D+00
 F 1 1.00
     Exponent=  1.9993000000D-01 Coefficients=  1.0000000000D+00
 ****
 Centers:       1
 S 9 1.00
     Exponent=  2.1644816090D+06 Coefficients=  1.2320000000D-02
     Exponent=  1.0822408045D+06 Coefficients=  1.2970000000D-02
     Exponent=  5.4112040224D+05 Coefficients=  2.6370000000D-02
     Exponent=  2.7056020112D+05 Coefficients=  9.0400000000D-03
     Exponent=  1.3528010056D+05 Coefficients=  3.4980000000D-02
     Exponent=  6.7640050280D+04 Coefficients=  1.2220000000D-02
     Exponent=  3.3820025140D+04 Coefficients=  6.0520000000D-02
     Exponent=  1.6910012570D+04 Coefficients=  6.4930000000D-02
     Exponent=  8.4550062850D+03 Coefficients=  1.3819000000D-01
 S 1 1.00
     Exponent=  4.2275031425D+03 Coefficients=  1.0000000000D+00
 S 1 1.00
     Exponent=  2.1137515713D+03 Coefficients=  1.0000000000D+00
 S 1 1.00
     Exponent=  1.0568757856D+03 Coefficients=  1.0000000000D+00
 S 1 1.00
     Exponent=  5.2843789281D+02 Coefficients=  1.0000000000D+00
 S 1 1.00
     Exponent=  2.6421894641D+02 Coefficients=  1.0000000000D+00
 S 1 1.00
     Exponent=  1.3210947320D+02 Coefficients=  1.0000000000D+00
 S 1 1.00
     Exponent=  6.6054736602D+01 Coefficients=  1.0000000000D+00
 S 1 1.00
     Exponent=  3.3027368301D+01 Coefficients=  1.0000000000D+00
 S 1 1.00
     Exponent=  1.6513684150D+01 Coefficients=  1.0000000000D+00
 S 1 1.00
     Exponent=  8.2568420752D+00 Coefficients=  1.0000000000D+00
 S 1 1.00
     Exponent=  4.1284210376D+00 Coefficients=  1.0000000000D+00
 S 1 1.00
     Exponent=  2.0642105188D+00 Coefficients=  1.0000000000D+00
 S 1 1.00
     Exponent=  1.0321052594D+00 Coefficients=  1.0000000000D+00
 S 1 1.00
     Exponent=  5.1605262970D-01 Coefficients=  1.0000000000D+00
 S 1 1.00
     Exponent=  2.5802631485D-01 Coefficients=  1.0000000000D+00
 S 1 1.00
     Exponent=  1.2901315743D-01 Coefficients=  1.0000000000D+00
 S 1 1.00
     Exponent=  6.4506578713D-02 Coefficients=  1.0000000000D+00
 P 7 1.00
     Exponent=  3.2357915258D+04 Coefficients=  5.0200000000D-03
     Exponent=  1.4381295670D+04 Coefficients=  2.0200000000D-03
     Exponent=  6.3916869645D+03 Coefficients=  1.8070000000D-02
     Exponent=  2.8407497620D+03 Coefficients=  3.6620000000D-02
     Exponent=  1.2625554498D+03 Coefficients=  1.1172000000D-01
     Exponent=  5.6113575545D+02 Coefficients=  2.5586000000D-01
     Exponent=  2.4939366909D+02 Coefficients=  4.2608000000D-01
 P 1 1.00
     Exponent=  1.1084163071D+02 Coefficients=  1.0000000000D+00
 P 1 1.00
     Exponent=  4.9262946981D+01 Coefficients=  1.0000000000D+00
 P 1 1.00
     Exponent=  2.1894643103D+01 Coefficients=  1.0000000000D+00
 P 1 1.00
     Exponent=  9.7309524900D+00 Coefficients=  1.0000000000D+00
 P 1 1.00
     Exponent=  4.3248677733D+00 Coefficients=  1.0000000000D+00
 P 1 1.00
     Exponent=  1.9221634548D+00 Coefficients=  1.0000000000D+00
 P 1 1.00
     Exponent=  8.5429486881D-01 Coefficients=  1.0000000000D+00
 P 1 1.00
     Exponent=  3.7968660836D-01 Coefficients=  1.0000000000D+00
 P 1 1.00
     Exponent=  1.6874960372D-01 Coefficients=  1.0000000000D+00
 P 1 1.00
     Exponent=  7.4999823874D-02 Coefficients=  1.0000000000D+00
 P 1 1.00
     Exponent=  3.3333255055D-02 Coefficients=  1.0000000000D+00
 D 5 1.00
     Exponent=  1.9119003508D+03 Coefficients=  4.3300000000D-03
     Exponent=  7.6476014031D+02 Coefficients=  1.7780000000D-02
     Exponent=  3.0590405613D+02 Coefficients=  8.9710000000D-02
     Exponent=  1.2236162245D+02 Coefficients=  3.1123000000D-01
     Exponent=  4.8944648980D+01 Coefficients=  5.3206000000D-01
 D 1 1.00
     Exponent=  1.9577859592D+01 Coefficients=  1.0000000000D+00
 D 1 1.00
     Exponent=  7.8311438368D+00 Coefficients=  1.0000000000D+00
 D 1 1.00
     Exponent=  3.1324575347D+00 Coefficients=  1.0000000000D+00
 D 1 1.00
     Exponent=  1.2529830139D+00 Coefficients=  1.0000000000D+00
 D 1 1.00
     Exponent=  5.0119320556D-01 Coefficients=  1.0000000000D+00
 D 1 1.00
     Exponent=  2.0047728222D-01 Coefficients=  1.0000000000D+00
 D 1 1.00
     Exponent=  8.0190912889D-02 Coefficients=  1.0000000000D+00
 D 1 1.00
     Exponent=  3.2076365156D-02 Coefficients=  1.0000000000D+00
 F 4 1.00
     Exponent=  8.2289680979D+01 Coefficients=  6.1870000000D-02
     Exponent=  2.9923520356D+01 Coefficients=  2.4823000000D-01
     Exponent=  1.0881280130D+01 Coefficients=  4.9956000000D-01
     Exponent=  3.9568291380D+00 Coefficients=  4.0380000000D-01
 F 1 1.00
     Exponent=  1.4388469593D+00 Coefficients=  1.0000000000D+00
 F 1 1.00
     Exponent=  5.2321707610D-01 Coefficients=  1.0000000000D+00
 G 1 1.00
     Exponent=  2.6700000000D+00 Coefficients=  1.0000000000D+00
 G 1 1.00
     Exponent=  9.0960000000D-01 Coefficients=  1.0000000000D+00
 ****
 Ernie: Thresh=  0.10000D-02 Tol=  0.10000D-05 Strict=F.
 There are  2033 symmetry adapted cartesian basis functions of A   symmetry.
 There are  1876 symmetry adapted basis functions of A   symmetry.
  1876 basis functions,  3022 primitive gaussians,  2033 cartesian basis functions
   275 alpha electrons      275 beta electrons
       nuclear repulsion energy     16079.8661162781 Hartrees.
 IExCor= 1009 DFT=T Ex=PBE Corr=PBE ExCW=0 ScaHFX=  0.000000
 ScaDFX=  1.000000  1.000000  1.000000  1.000000 ScalE2=  1.000000  1.000000
 IRadAn=      0 IRanWt=     -1 IRanGd=            0 ICorTp=0 IEmpDi=  4
 NAtoms=   84 NActive=   84 NUniq=   84 SFac= 1.00D+00 NAtFMM=   60 NAOKFM=T Big=T
 Integral buffers will be    131072 words long.
 Raffenetti 2 integral format.
 Two-electron integral symmetry is turned on.
 ------------------------------------------------------------------------------
 Polarizable Continuum Model (PCM)
 =================================
 Model                : PCM (using non-symmetric T matrix).
 Atomic radii         : UFF (Universal Force Field).
 Polarization charges : Total charges.
 Charge compensation  : None.
 Solution method      : On-the-fly selection.
 Cavity type          : Scaled VdW (van der Waals Surface) (Alpha=1.100).
 Cavity algorithm     : GePol (No added spheres)
                        Default sphere list used, NSphG=   84.
                        Lebedev-Laikov grids with approx.  5.0 points / Ang**2.
                        Smoothing algorithm: Karplus/York (Gamma=1.0000).
                        Polarization charges: spherical gaussians, with
                                              point-specific exponents (IZeta= 3).
                        Self-potential: point-specific (ISelfS= 7).
                        Self-field    : sphere-specific E.n sum rule (ISelfD= 2).
 Solvent              : Dichloromethane, Eps=   8.930000 Eps(inf)=   2.028346
 ------------------------------------------------------------------------------
 GePol: Number of generator spheres                  =      84
 GePol: Total number of spheres                      =      84
 GePol: Number of exposed spheres                    =      84 (100.00%)
 GePol: Number of points                             =    6371
 GePol: Average weight of points                     =       0.13
 GePol: Minimum weight of points                     =   0.25D-10
 GePol: Maximum weight of points                     =    0.21838
 GePol: Number of points with low weight             =     431
 GePol: Fraction of low-weight points (<1% of avg)   =       6.77%
 GePol: Cavity surface area                          =    809.968 Ang**2
 GePol: Cavity volume                                =   1017.552 Ang**3
 Leave Link  301 at Sun Nov 24 20:53:31 2019, MaxMem=   939524096 cpu:         1.0
 (Enter /scr/programas/g09/l302.exe)
 NPDir=0 NMtPBC=     1 NCelOv=     1 NCel=       1 NClECP=     1 NCelD=      1
         NCelK=      1 NCelE2=     1 NClLst=     1 CellRange=     0.0.
 One-electron integrals computed using PRISM.
 NBasis=  1876 RedAO= T EigKep=  1.50D-06  NBF=  1876
 NBsUse=  1876 1.00D-06 EigRej= -1.00D+00 NBFU=  1876
 Precomputing XC quadrature grid using
 IXCGrd= 4 IRadAn=           0 IRanWt=          -1 IRanGd=           0 AccXCQ= 0.00D+00.
 Defaulting to unpruned grid for atomic number  78.
 Defaulting to unpruned grid for atomic number  50.
 Generated NRdTot=       0 NPtTot=           0 NUsed=           0 NTot=          32
 NSgBfM=  1695  1700  1705  1716  1725 MxSgAt=    84 MxSgA2=    84.
 Leave Link  302 at Sun Nov 24 20:53:57 2019, MaxMem=   939524096 cpu:        93.3
 (Enter /scr/programas/g09/l308.exe)
 Leave Link  308 at Sun Nov 24 20:53:59 2019, MaxMem=   939524096 cpu:         6.6
 (Enter /scr/programas/g09/l303.exe)
 DipDrv:  MaxL=1.
 Leave Link  303 at Sun Nov 24 20:54:00 2019, MaxMem=   939524096 cpu:         3.8
 (Enter /scr/programas/g09/l401.exe)
 ExpMin= 1.08D-02 ExpMax= 2.16D+06 ExpMxC= 2.16D+06 IAcc=4 IRadAn=    199590 AccDes= 0.00D+00
 Harris functional with IExCor= 1009 and IRadAn=  199590 diagonalized for initial guess.
 HarFok:  IExCor= 1009 AccDes= 0.00D+00 IRadAn=    199590 IDoV= 1 UseB2=F ITyADJ=14
 ICtDFT=  3500011 ScaDFX=  1.000000  1.000000  1.000000  1.000000
 FoFCou: FMM=F IPFlag=           0 FMFlag=      100000 FMFlg1=        2001
         NFxFlg=           0 DoJE=T BraDBF=F KetDBF=T FulRan=T
         wScrn=  0.000000 ICntrl=     500 IOpCl=  0 I1Cent=   200000004 NGrid=           0
         NMat0=    1 NMatS0=      1 NMatT0=    0 NMatD0=    1 NMtDS0=    0 NMtDT0=    0
 Petite list used in FoFCou.
 Harris En= -33112.4929173392    
 JPrj=0 DoOrth=F DoCkMO=F.
 Leave Link  401 at Sun Nov 24 21:06:12 2019, MaxMem=   939524096 cpu:      2762.8
 (Enter /scr/programas/g09/l502.exe)
 Closed shell SCF:
 Using DIIS extrapolation, IDIIS=  1040.
 Integral symmetry usage will be decided dynamically.
 IVT=    12680561 IEndB=    12680561 NGot=   939524096 MDV=   931229658
 LenX=   931229658 LenY=   927094536
 Requested convergence on RMS density matrix=1.00D-03 within 500 cycles.
 Requested convergence on MAX density matrix=1.00D-01.
 Requested convergence on             energy=1.00D-01.
 No special actions if energy rises.
 Fock matrices will be formed incrementally for  20 cycles.

 Cycle   1  Pass 1  IDiag  1:
 FoFJK:  IHMeth= 1 ICntrl=     500 DoSepK=F KAlg= 0 I1Cent=   0 FoldK=F
 IRaf= 620000000 NMat=   1 IRICut=       1 DoRegI=T DoRafI=F ISym2E= 0.
 FoFCou: FMM=T IPFlag=           0 FMFlag=      100000 FMFlg1=        2001
         NFxFlg=           0 DoJE=T BraDBF=F KetDBF=F FulRan=T
         wScrn=  0.000000 ICntrl=     500 IOpCl=  0 I1Cent=           0 NGrid=           0
         NMat0=    1 NMatS0=      1 NMatT0=    0 NMatD0=    1 NMtDS0=    0 NMtDT0=    0
 Symmetry not used in FoFCou.
 FMM levels:  10  Number of levels for PrismC:   9
 Defaulting to unpruned grid for atomic number  78.
 Defaulting to unpruned grid for atomic number  78.
 Defaulting to unpruned grid for atomic number  78.
 Defaulting to unpruned grid for atomic number  78.
 Inv3:  Mode=1 IEnd=   121768923.
 Iteration    1 A*A^-1 deviation from unit magnitude is 1.15D-14 for   5637.
 Iteration    1 A*A^-1 deviation from orthogonality  is 1.26D-14 for   5076    485.
 Iteration    1 A^-1*A deviation from unit magnitude is 1.22D-14 for   5076.
 Iteration    1 A^-1*A deviation from orthogonality  is 1.18D-10 for   2755   2735.
 Iteration    2 A*A^-1 deviation from unit magnitude is 1.03D-14 for    316.
 Iteration    2 A*A^-1 deviation from orthogonality  is 1.20D-14 for   3923    255.
 Iteration    2 A^-1*A deviation from unit magnitude is 1.55D-15 for   2074.
 Iteration    2 A^-1*A deviation from orthogonality  is 8.33D-16 for   5474    839.
 E= -33091.6677461127    
 DIIS: error= 1.84D-01 at cycle   1 NSaved=   1.
 NSaved= 1 IEnMin= 1 EnMin= -33091.6677461127     IErMin= 1 ErrMin= 1.84D-01
 ErrMax= 1.84D-01  0.00D+00 EMaxC= 1.00D-01 BMatC= 3.41D+02 BMatP= 3.41D+02
 IDIUse=3 WtCom= 0.00D+00 WtEn= 1.00D+00
 Coeff-Com:  0.100D+01
 Coeff-En:   0.100D+01
 Coeff:      0.100D+01
 Gap=     0.784 Goal=   None    Shift=    0.000
 GapD=    0.784 DampG=2.000 DampE=0.125 DampFc=0.2500 IDamp=-1.
 Damping current iteration by 2.50D-01
 RMSDP=1.94D-02 MaxDP=6.44D+00              OVMax= 7.46D-01

 Cycle   2  Pass 1  IDiag  1:
 RMSU=  4.64D-03    CP:  1.10D+00
 E= -33093.2756884237     Delta-E=       -1.607942311071 Rises=F Damp=T
 DIIS: error= 1.37D-01 at cycle   2 NSaved=   2.
 NSaved= 2 IEnMin= 2 EnMin= -33093.2756884237     IErMin= 2 ErrMin= 1.37D-01
 ErrMax= 1.37D-01  0.00D+00 EMaxC= 1.00D-01 BMatC= 1.64D+02 BMatP= 3.41D+02
 IDIUse=3 WtCom= 0.00D+00 WtEn= 1.00D+00
 Coeff-Com: -0.195D+01 0.295D+01
 Coeff-En:   0.164D+00 0.836D+00
 Coeff:      0.164D+00 0.836D+00
 Gap=    -0.121 Goal=   None    Shift=    0.000
 RMSDP=7.75D-03 MaxDP=2.63D+00 DE=-1.61D+00 OVMax= 9.66D-01

 Cycle   3  Pass 1  IDiag  1:
 RMSU=  5.19D-03    CP:  7.71D-01  2.56D-01
 E= -33095.3653676956     Delta-E=       -2.089679271863 Rises=F Damp=F
 DIIS: error= 4.43D-02 at cycle   3 NSaved=   3.
 NSaved= 3 IEnMin= 3 EnMin= -33095.3653676956     IErMin= 3 ErrMin= 4.43D-02
 ErrMax= 4.43D-02  0.00D+00 EMaxC= 1.00D-01 BMatC= 1.43D+01 BMatP= 1.64D+02
 IDIUse=3 WtCom= 5.57D-01 WtEn= 4.43D-01
 EnCoef did   100 forward-backward iterations
 Coeff-Com:  0.897D+00-0.106D+01 0.116D+01
 Coeff-En:   0.278D+00 0.460D-02 0.717D+00
 Coeff:      0.622D+00-0.587D+00 0.965D+00
 Gap=     0.083 Goal=   None    Shift=    0.000
 RMSDP=2.00D-02 MaxDP=8.54D+00 DE=-2.09D+00 OVMax= 6.83D-01

 Cycle   4  Pass 1  IDiag  1:
 RMSU=  1.27D-02    CP:  1.56D+00  1.99D+00 -4.09D-01
 E= -33081.4933283009     Delta-E=       13.872039394657 Rises=F Damp=F
 DIIS: error= 5.39D-02 at cycle   4 NSaved=   4.
 NSaved= 4 IEnMin= 3 EnMin= -33095.3653676956     IErMin= 3 ErrMin= 4.43D-02
 ErrMax= 5.39D-02  0.00D+00 EMaxC= 1.00D-01 BMatC= 1.41D+01 BMatP= 1.43D+01
 IDIUse=3 WtCom= 4.61D-01 WtEn= 5.39D-01
 EnCoef did   100 forward-backward iterations
 Coeff-Com:  0.734D+00-0.913D+00 0.828D+00 0.352D+00
 Coeff-En:   0.259D+00 0.196D-02 0.697D+00 0.416D-01
 Coeff:      0.478D+00-0.420D+00 0.757D+00 0.185D+00
 Gap=    -0.016 Goal=   None    Shift=    0.000
 RMSDP=1.68D-02 MaxDP=7.42D+00 DE= 1.39D+01 OVMax= 8.60D-01

 Cycle   5  Pass 1  IDiag  1:
 RMSU=  2.27D-03    CP:  9.33D-01  3.16D-01  3.17D-01  1.13D-01
 E= -33097.0355498909     Delta-E=      -15.542221589960 Rises=F Damp=F
 DIIS: error= 1.80D-02 at cycle   5 NSaved=   5.
 NSaved= 5 IEnMin= 5 EnMin= -33097.0355498909     IErMin= 5 ErrMin= 1.80D-02
 ErrMax= 1.80D-02  0.00D+00 EMaxC= 1.00D-01 BMatC= 1.42D+00 BMatP= 1.41D+01
 IDIUse=3 WtCom= 8.20D-01 WtEn= 1.80D-01
 Coeff-Com: -0.103D+00 0.169D+00 0.188D+00 0.181D-01 0.728D+00
 Coeff-En:   0.000D+00 0.000D+00 0.249D+00 0.000D+00 0.751D+00
 Coeff:     -0.847D-01 0.138D+00 0.199D+00 0.149D-01 0.732D+00
 Gap=     0.270 Goal=   None    Shift=    0.000
 RMSDP=4.12D-03 MaxDP=1.02D+00 DE=-1.55D+01 OVMax= 2.77D-01

 Cycle   6  Pass 1  IDiag  1:
 RMSU=  1.97D-03    CP:  8.19D-01  2.13D-01  7.22D-01  3.77D-02  1.28D-02
 E= -33096.9191948330     Delta-E=        0.116355057915 Rises=F Damp=F
 DIIS: error= 1.25D-02 at cycle   6 NSaved=   6.
 NSaved= 6 IEnMin= 5 EnMin= -33097.0355498909     IErMin= 6 ErrMin= 1.25D-02
 ErrMax= 1.25D-02  0.00D+00 EMaxC= 1.00D-01 BMatC= 9.34D-01 BMatP= 1.42D+00
 IDIUse=3 WtCom= 8.75D-01 WtEn= 1.25D-01
 Coeff-Com: -0.118D+00 0.167D+00 0.265D-01-0.153D-01 0.552D+00 0.388D+00
 Coeff-En:   0.000D+00 0.000D+00 0.000D+00 0.000D+00 0.530D+00 0.470D+00
 Coeff:     -0.103D+00 0.147D+00 0.232D-01-0.134D-01 0.549D+00 0.398D+00
 Gap=     0.079 Goal=   None    Shift=    0.000
 RMSDP=1.91D-03 MaxDP=3.07D-01 DE= 1.16D-01 OVMax= 4.18D-01

 Cycle   7  Pass 1  IDiag  1:
 RMSU=  9.25D-04    CP:  8.38D-01  1.80D-01  6.29D-01  4.86D-02  4.13D-01
                    CP:  3.55D-01
 E= -33097.5869606985     Delta-E=       -0.667765865539 Rises=F Damp=F
 DIIS: error= 2.73D-03 at cycle   7 NSaved=   7.
 NSaved= 7 IEnMin= 7 EnMin= -33097.5869606985     IErMin= 7 ErrMin= 2.73D-03
 ErrMax= 2.73D-03  0.00D+00 EMaxC= 1.00D-01 BMatC= 7.97D-02 BMatP= 9.34D-01
 IDIUse=3 WtCom= 9.73D-01 WtEn= 2.73D-02
 Coeff-Com: -0.631D-01 0.862D-01-0.128D-01 0.245D-02 0.263D+00 0.248D+00
 Coeff-Com:  0.476D+00
 Coeff-En:   0.000D+00 0.000D+00 0.000D+00 0.000D+00 0.000D+00 0.721D-01
 Coeff-En:   0.928D+00
 Coeff:     -0.613D-01 0.838D-01-0.125D-01 0.238D-02 0.256D+00 0.244D+00
 Coeff:      0.488D+00
 Gap=     0.094 Goal=   None    Shift=    0.000
 RMSDP=8.88D-04 MaxDP=1.97D-01 DE=-6.68D-01 OVMax= 8.97D-02

 Cycle   8  Pass 1  IDiag  1:
 RMSU=  5.60D-04    CP:  8.57D-01  2.17D-01  6.07D-01  6.35D-02  4.40D-01
                    CP:  5.26D-01  4.99D-01
 E= -33097.6385452092     Delta-E=       -0.051584510678 Rises=F Damp=F
 DIIS: error= 1.89D-03 at cycle   8 NSaved=   8.
 NSaved= 8 IEnMin= 8 EnMin= -33097.6385452092     IErMin= 8 ErrMin= 1.89D-03
 ErrMax= 1.89D-03  0.00D+00 EMaxC= 1.00D-01 BMatC= 2.90D-02 BMatP= 7.97D-02
 IDIUse=3 WtCom= 9.81D-01 WtEn= 1.89D-02
 Coeff-Com: -0.383D-01 0.510D-01-0.211D-01 0.181D-02 0.691D-01 0.987D-01
 Coeff-Com:  0.381D+00 0.458D+00
 Coeff-En:   0.000D+00 0.000D+00 0.000D+00 0.000D+00 0.000D+00 0.000D+00
 Coeff-En:   0.305D+00 0.695D+00
 Coeff:     -0.376D-01 0.500D-01-0.207D-01 0.178D-02 0.678D-01 0.968D-01
 Coeff:      0.379D+00 0.462D+00
 Gap=     0.089 Goal=   None    Shift=    0.000
 RMSDP=4.67D-04 MaxDP=5.97D-02 DE=-5.16D-02 OVMax= 3.02D-02

 Error on total polarization charges =  0.02617
 SCF Done:  E(RPBE-PBE) =  -33097.6385452     A.U. after    8 cycles
            NFock=  8  Conv=0.47D-03     -V/T= 2.0134
 KE= 3.265967896245D+04 PE=-1.105866384831D+05 EE= 2.874945485912D+04
 Leave Link  502 at Mon Nov 25 00:06:03 2019, MaxMem=   939524096 cpu:     42892.8
 (Enter /scr/programas/g09/l801.exe)
 Range of M.O.s used for correlation:     1  1876
 NBasis=  1876 NAE=   275 NBE=   275 NFC=     0 NFV=     0
 NROrb=   1876 NOA=   275 NOB=   275 NVA=  1601 NVB=  1601

 **** Warning!!: The largest alpha MO coefficient is  0.71562443D+02


 **** Warning!!: The smallest alpha delta epsilon is  0.86927933D-01

 Leave Link  801 at Mon Nov 25 00:06:03 2019, MaxMem=   939524096 cpu:         0.4
 (Enter /scr/programas/g09/l1002.exe)
 Minotr:  Closed shell wavefunction.
 NEqPCM:  Using equilibrium solvation (IEInf=0, Eps=   8.9300, EpsInf=   2.0283)
          Direct CPHF calculation.
          Differentiating once with respect to magnetic field using GIAOs.
          Electric field/nuclear overlap derivatives assumed to be zero.
          Requested convergence is 1.0D-08 RMS, and 1.0D-07 maximum.
          Secondary convergence is 1.0D-12 RMS, and 1.0D-12 maximum.
          NewPWx=T KeepS1=F KeepF1=F KeepIn=T MapXYZ=F SortEE=F KeepMc=T.
          MDV=     939521544 using IRadAn=       2.
 Defaulting to unpruned grid for atomic number  78.
 Defaulting to unpruned grid for atomic number  50.
 Generate precomputed XC quadrature information.
          Solving linear equations simultaneously, MaxMat=      72.
 FoFJK:  IHMeth= 1 ICntrl=    6127 DoSepK=F KAlg= 0 I1Cent=   0 FoldK=F
 IRaf=         1 NMat=   1 IRICut=       1 DoRegI=T DoRafI=F ISym2E= 0.
 Defaulting to unpruned grid for atomic number  78.
 Defaulting to unpruned grid for atomic number  78.
 Defaulting to unpruned grid for atomic number  78.
 Defaulting to unpruned grid for atomic number  78.
          There are     3 degrees of freedom in the 1st order CPHF.  IDoFFX=0 NUNeed=     3.
      3 vectors produced by pass  0 Test12= 1.47D-11 3.33D-08 XBig12= 7.56D+03 4.39D+00.
 AX will form     3 AO Fock derivatives at one time.
 InvSVY:  IOpt=1 It=  1 EMax= 0.00D+00
 Solved reduced A of dimension     3 with     3 vectors.
 Calculating GIAO nuclear magnetic shielding tensors.
 SCF GIAO Magnetic shielding tensor (ppm):
      1  Pt   Isotropic =  3175.8139   Anisotropy =  1489.9299
   XX=  3664.6051   YX=  -239.3623   ZX=  -286.1701
   XY=    -9.6766   YY=  4120.4207   ZY=    80.4777
   XZ=  -221.1703   YZ=   200.5522   ZZ=  1742.4158
   Eigenvalues:  1703.1845  3655.1567  4169.1005
      2  P    Isotropic =   251.2432   Anisotropy =    72.1022
   XX=   288.6836   YX=    21.6273   ZX=     5.7085
   XY=    32.2679   YY=   211.9225   ZY=     7.1596
   XZ=    15.0261   YZ=    -7.2887   ZZ=   253.1235
   Eigenvalues:   203.1995   251.2188   299.3114
      3  P    Isotropic =   251.5540   Anisotropy =   118.8528
   XX=   237.0379   YX=   -66.4885   ZX=    18.2356
   XY=   -52.0033   YY=   288.1384   ZY=    32.5892
   XZ=    37.4740   YZ=    46.6491   ZZ=   229.4857
   Eigenvalues:   165.4063   258.4666   330.7892
      4  C    Isotropic =    42.8543   Anisotropy =   267.8308
   XX=    80.7427   YX=   -58.4211   ZX=   -69.3239
   XY=  -115.9321   YY=    89.0256   ZY=   139.1078
   XZ=   -28.5137   YZ=    77.7046   ZZ=   -41.2053
   Eigenvalues:  -102.5500     9.7047   221.4082
      5  C    Isotropic =     0.0446   Anisotropy =   125.4551
   XX=   -21.5619   YX=   -36.9274   ZX=   -71.3514
   XY=   -21.2703   YY=    59.0905   ZY=    27.0014
   XZ=   -68.3725   YZ=     4.6779   ZZ=   -37.3950
   Eigenvalues:  -100.1647    16.6172    83.6813
      6  C    Isotropic =    38.3398   Anisotropy =   173.6923
   XX=    26.9409   YX=   -73.4200   ZX=   -16.5435
   XY=  -134.2764   YY=    44.9820   ZY=    43.7730
   XZ=   -16.7580   YZ=    32.0399   ZZ=    43.0966
   Eigenvalues:   -69.9619    30.8467   154.1347
      7  C    Isotropic =    42.5376   Anisotropy =   160.1236
   XX=    13.9732   YX=   -75.9509   ZX=   -19.8960
   XY=  -110.8967   YY=    57.0202   ZY=    46.6557
   XZ=   -39.0105   YZ=    10.5481   ZZ=    56.6193
   Eigenvalues:   -60.6268    38.9529   149.2866
      8  H    Isotropic =    24.7397   Anisotropy =    10.3748
   XX=    22.4068   YX=     2.7672   ZX=    -6.3704
   XY=     0.6974   YY=    26.0985   ZY=    -1.6967
   XZ=    -3.9220   YZ=    -4.4042   ZZ=    25.7137
   Eigenvalues:    18.6301    23.9328    31.6562
      9  C    Isotropic =    75.6353   Anisotropy =   215.0498
   XX=    61.0457   YX=   -80.2030   ZX=   -61.6276
   XY=   -85.6349   YY=   154.9253   ZY=    23.3628
   XZ=   -69.3435   YZ=    29.8277   ZZ=    10.9350
   Eigenvalues:   -38.4589    46.3629   219.0019
     10  H    Isotropic =    20.2479   Anisotropy =    18.9425
   XX=    16.0109   YX=     3.2548   ZX=     1.0020
   XY=     1.6531   YY=    14.0774   ZY=    -6.8638
   XZ=    -2.2980   YZ=    -5.6753   ZZ=    30.6553
   Eigenvalues:    11.0504    16.8170    32.8762
     11  C    Isotropic =    28.5047   Anisotropy =    86.1271
   XX=    47.7812   YX=   -19.6624   ZX=   -10.2451
   XY=   -30.2252   YY=    35.1876   ZY=    67.4389
   XZ=    -4.4461   YZ=    29.1863   ZZ=     2.5452
   Eigenvalues:   -33.1088    32.7001    85.9227
     12  H    Isotropic =    26.4662   Anisotropy =     3.2471
   XX=    24.4595   YX=    -1.3685   ZX=    -1.4474
   XY=    -2.8882   YY=    26.7854   ZY=     0.0664
   XZ=    -0.7712   YZ=    -0.4541   ZZ=    28.1536
   Eigenvalues:    22.9814    27.7862    28.6309
     13  H    Isotropic =    24.8718   Anisotropy =     6.9104
   XX=    22.9119   YX=     0.2639   ZX=    -2.8119
   XY=     0.8405   YY=    25.5949   ZY=    -2.9368
   XZ=    -2.6709   YZ=    -2.4472   ZZ=    26.1084
   Eigenvalues:    21.1206    24.0160    29.4787
     14  H    Isotropic =    27.8346   Anisotropy =     7.8258
   XX=    27.8868   YX=    -2.5533   ZX=    -1.7066
   XY=    -2.5392   YY=    30.5294   ZY=     2.7022
   XZ=    -0.9993   YZ=     2.1744   ZZ=    25.0875
   Eigenvalues:    24.1078    26.3441    33.0517
     15  C    Isotropic =    43.1284   Anisotropy =   357.4934
   XX=   275.9143   YX=    50.1220   ZX=    80.7828
   XY=  -128.9425   YY=   -72.3123   ZY=  -107.7656
   XZ=   -63.4201   YZ=   -86.0626   ZZ=   -74.2169
   Eigenvalues:  -171.2371    19.1649   281.4573
     16  C    Isotropic =    43.9099   Anisotropy =   254.1341
   XX=   209.2058   YX=    16.9941   ZX=     3.9166
   XY=   -89.0168   YY=  -107.1010   ZY=    46.8161
   XZ=    10.3576   YZ=    12.5926   ZZ=    29.6249
   Eigenvalues:  -117.4018    35.7988   213.3326
     17  C    Isotropic =    33.5354   Anisotropy =   229.7184
   XX=   184.6377   YX=   -21.6048   ZX=    38.1016
   XY=   -15.3446   YY=    13.9579   ZY=     7.3585
   XZ=   -21.6161   YZ=    66.0975   ZZ=   -97.9895
   Eigenvalues:  -109.5582    23.4833   186.6810
     18  C    Isotropic =    43.7700   Anisotropy =   193.5691
   XX=   160.2065   YX=   -25.5692   ZX=    27.4448
   XY=   -43.4925   YY=    32.0930   ZY=    43.7635
   XZ=    51.7326   YZ=    30.8577   ZZ=   -60.9894
   Eigenvalues:   -83.9688    42.4627   172.8161
     19  H    Isotropic =    20.2285   Anisotropy =    15.0905
   XX=    16.7519   YX=     0.5446   ZX=     0.3597
   XY=     3.3690   YY=    16.2872   ZY=     7.9825
   XZ=     1.1524   YZ=     3.7437   ZZ=    27.6465
   Eigenvalues:    13.1505    17.2462    30.2888
     20  C    Isotropic =    20.7161   Anisotropy =   140.7858
   XX=   110.0932   YX=    28.5065   ZX=    -0.5303
   XY=    29.9486   YY=   -80.9801   ZY=    28.0194
   XZ=   -16.3249   YZ=    46.1444   ZZ=    33.0352
   Eigenvalues:   -96.4587    44.0337   114.5733
     21  H    Isotropic =    23.0148   Anisotropy =    12.5296
   XX=    20.9317   YX=     3.1553   ZX=    -3.8011
   XY=     0.1423   YY=    25.8453   ZY=     8.7429
   XZ=     2.0299   YZ=     5.3199   ZZ=    22.2673
   Eigenvalues:    16.1798    21.4967    31.3679
     22  C    Isotropic =   -17.1204   Anisotropy =   127.1372
   XX=    17.7138   YX=    79.7409   ZX=    74.0571
   XY=    49.3274   YY=   -39.7467   ZY=   -66.3198
   XZ=    56.5754   YZ=   -69.3230   ZZ=   -29.3282
   Eigenvalues:  -152.1270    33.1281    67.6378
     23  H    Isotropic =    24.6975   Anisotropy =     3.8290
   XX=    25.9098   YX=     0.0291   ZX=     2.5785
   XY=     0.0228   YY=    24.8121   ZY=     3.5723
   XZ=    -2.0459   YZ=     2.5256   ZZ=    23.3706
   Eigenvalues:    20.9509    25.8915    27.2502
     24  H    Isotropic =    26.3824   Anisotropy =     4.7395
   XX=    29.1856   YX=     1.3039   ZX=     1.2862
   XY=    -3.7367   YY=    23.0689   ZY=     2.6750
   XZ=     0.5740   YZ=     2.2356   ZZ=    26.8926
   Eigenvalues:    21.5723    28.0328    29.5421
     25  H    Isotropic =    27.2760   Anisotropy =     7.8415
   XX=    32.2851   YX=     0.6856   ZX=     1.8067
   XY=    -3.3082   YY=    24.5938   ZY=    -0.6316
   XZ=    -2.2933   YZ=    -1.1586   ZZ=    24.9491
   Eigenvalues:    23.6962    25.6282    32.5037
     26  C    Isotropic =   -14.2083   Anisotropy =   252.9202
   XX=   -95.0064   YX=    78.5685   ZX=    -7.5908
   XY=   189.0158   YY=    78.0013   ZY=   -23.7409
   XZ=   -44.9753   YZ=    -5.3789   ZZ=   -25.6197
   Eigenvalues:  -169.6546   -27.3754   154.4052
     27  C    Isotropic =   -34.5453   Anisotropy =   102.6952
   XX=    -8.2774   YX=    28.1011   ZX=   -94.5532
   XY=     8.2156   YY=    14.7319   ZY=   117.9649
   XZ=   -59.3658   YZ=   -38.8532   ZZ=  -110.0904
   Eigenvalues:  -162.1278    24.5738    33.9182
     28  C    Isotropic =     3.8208   Anisotropy =   146.6820
   XX=    48.7339   YX=    89.5303   ZX=    62.0883
   XY=    40.8439   YY=     6.7393   ZY=  -100.2041
   XZ=     9.6299   YZ=   -72.1006   ZZ=   -44.0109
   Eigenvalues:  -134.1933    44.0469   101.6088
     29  C    Isotropic =    97.7512   Anisotropy =   304.9753
   XX=   101.7003   YX=    71.4868   ZX=   -25.8468
   XY=   130.5419   YY=   232.3805   ZY=   -75.6011
   XZ=    15.3841   YZ=   -73.7965   ZZ=   -40.8272
   Eigenvalues:   -62.9002    55.0857   301.0681
     30  H    Isotropic =    24.7482   Anisotropy =    10.2402
   XX=    25.6909   YX=    -9.1175   ZX=    -2.9424
   XY=     4.7089   YY=    30.7169   ZY=     1.7260
   XZ=    -0.4982   YZ=    -4.3224   ZZ=    17.8367
   Eigenvalues:    17.2493    25.4203    31.5750
     31  C    Isotropic =   132.2076   Anisotropy =   355.5396
   XX=   109.6675   YX=    84.7553   ZX=   -41.8322
   XY=   168.2738   YY=   292.8670   ZY=   -30.8808
   XZ=   -78.5068   YZ=   -56.2137   ZZ=    -5.9117
   Eigenvalues:   -31.9646    59.3534   369.2340
     32  H    Isotropic =    23.4581   Anisotropy =    14.8453
   XX=    27.3769   YX=    -6.4098   ZX=     7.0651
   XY=    -4.4679   YY=    21.2822   ZY=    -4.5679
   XZ=    -0.0196   YZ=    -5.5313   ZZ=    21.7153
   Eigenvalues:    16.1448    20.8746    33.3550
     33  C    Isotropic =    83.9532   Anisotropy =   172.1033
   XX=    82.6140   YX=    94.0431   ZX=   -23.0959
   XY=    97.9875   YY=   104.7016   ZY=   -24.8219
   XZ=   -10.3388   YZ=   -35.1278   ZZ=    64.5441
   Eigenvalues:    -3.8812    57.0521   198.6888
     34  H    Isotropic =    29.7099   Anisotropy =     9.5445
   XX=    30.0152   YX=    -2.4309   ZX=     0.6880
   XY=     6.7876   YY=    34.7905   ZY=    -3.8147
   XZ=     2.5808   YZ=    -2.1118   ZZ=    24.3239
   Eigenvalues:    22.8830    30.1738    36.0729
     35  H    Isotropic =    33.0141   Anisotropy =    20.4791
   XX=    30.6486   YX=     0.6019   ZX=    -0.8937
   XY=     9.3328   YY=    42.5929   ZY=    -3.9044
   XZ=    -6.6639   YZ=    -7.9795   ZZ=    25.8008
   Eigenvalues:    23.1622    29.2132    46.6668
     36  H    Isotropic =    35.2923   Anisotropy =    27.6627
   XX=    29.1474   YX=     3.9560   ZX=    -1.1520
   XY=    16.3649   YY=    47.2408   ZY=    -6.7220
   XZ=    -3.8109   YZ=    -6.0671   ZZ=    29.4888
   Eigenvalues:    24.5511    27.5918    53.7341
     37  C    Isotropic =    37.4903   Anisotropy =   237.6509
   XX=    42.7506   YX=  -163.9159   ZX=    51.2252
   XY=   -87.0390   YY=    70.0170   ZY=   -27.7670
   XZ=    50.2530   YZ=   -17.9089   ZZ=    -0.2967
   Eigenvalues:   -77.3832    -6.0701   195.9243
     38  C    Isotropic =    31.7616   Anisotropy =   203.7262
   XX=    85.0094   YX=   -76.9514   ZX=    84.0968
   XY=   -63.0368   YY=    78.2640   ZY=   -31.5699
   XZ=    40.2018   YZ=   -13.5299   ZZ=   -67.9887
   Eigenvalues:   -90.0858    17.7915   167.5791
     39  C    Isotropic =    61.3557   Anisotropy =   247.0948
   XX=   135.3282   YX=  -120.0439   ZX=    15.8655
   XY=   -95.7920   YY=    78.8046   ZY=   -46.8183
   XZ=    11.3661   YZ=   -59.6142   ZZ=   -30.0658
   Eigenvalues:   -58.1421    16.1235   226.0855
     40  C    Isotropic =     1.2897   Anisotropy =   125.2867
   XX=    27.7428   YX=   -53.7975   ZX=   -22.6517
   XY=   -53.5664   YY=    10.6926   ZY=   -63.3088
   XZ=   -16.2746   YZ=   -76.5309   ZZ=   -34.5662
   Eigenvalues:  -103.3535    22.4084    84.8141
     41  H    Isotropic =    22.8795   Anisotropy =    10.5279
   XX=    25.2874   YX=     3.2414   ZX=    -0.3677
   XY=     5.7459   YY=    25.4884   ZY=    -0.6951
   XZ=    -1.6937   YZ=     3.8983   ZZ=    17.8627
   Eigenvalues:    16.9701    21.7704    29.8981
     42  C    Isotropic =    12.5929   Anisotropy =   151.9302
   XX=    26.5896   YX=   -53.7034   ZX=    86.0559
   XY=   -53.9823   YY=    65.7531   ZY=     5.8164
   XZ=    54.4631   YZ=    -0.8438   ZZ=   -54.5639
   Eigenvalues:  -100.6072    24.5064   113.8797
     43  H    Isotropic =    22.6351   Anisotropy =     9.1921
   XX=    26.4055   YX=    -0.0711   ZX=    -3.3153
   XY=     0.2406   YY=    20.7732   ZY=    -4.8632
   XZ=    -3.9098   YZ=    -3.8159   ZZ=    20.7266
   Eigenvalues:    15.7780    23.3641    28.7631
     44  C    Isotropic =    24.8935   Anisotropy =   270.6455
   XX=    31.7764   YX=  -213.8948   ZX=    55.5150
   XY=  -131.6714   YY=    13.5437   ZY=    -9.0536
   XZ=    29.5710   YZ=   -20.6140   ZZ=    29.3603
   Eigenvalues:  -152.3026    21.6592   205.3238
     45  H    Isotropic =    18.2301   Anisotropy =    12.1227
   XX=    11.6984   YX=     9.5118   ZX=    -4.7267
   XY=     6.7223   YY=    21.1173   ZY=     0.7518
   XZ=    -6.7830   YZ=     3.2006   ZZ=    21.8746
   Eigenvalues:     4.9121    23.4663    26.3119
     46  H    Isotropic =    20.3725   Anisotropy =     9.3370
   XX=    15.7945   YX=     7.3435   ZX=    -1.2615
   XY=     4.3287   YY=    23.4422   ZY=     0.3748
   XZ=     0.1919   YZ=     0.4018   ZZ=    21.8809
   Eigenvalues:    12.5949    21.9255    26.5972
     47  H    Isotropic =    16.9712   Anisotropy =    13.6926
   XX=     7.1182   YX=    12.3017   ZX=    -4.0677
   XY=     7.2281   YY=    18.8748   ZY=     2.3363
   XZ=    -3.9462   YZ=     3.4992   ZZ=    24.9205
   Eigenvalues:     0.6013    24.2127    26.0996
     48  C    Isotropic =    31.3927   Anisotropy =   209.1424
   XX=    35.0924   YX=    75.8290   ZX=    20.8419
   XY=    28.1449   YY=   150.3354   ZY=    24.7511
   XZ=    32.4542   YZ=   -20.8939   ZZ=   -91.2498
   Eigenvalues:   -96.9510    20.3081   170.8209
     49  C    Isotropic =    -8.7498   Anisotropy =   123.9460
   XX=   -20.4409   YX=    19.7349   ZX=   -19.6380
   XY=    56.7768   YY=    53.5192   ZY=    47.2071
   XZ=   -68.1367   YZ=    35.1487   ZZ=   -59.3277
   Eigenvalues:  -107.0781     6.9479    73.8809
     50  C    Isotropic =    49.1330   Anisotropy =   208.1249
   XX=   -22.8906   YX=    82.1928   ZX=    28.6584
   XY=    88.6966   YY=   151.2483   ZY=    18.6441
   XZ=    15.5910   YZ=    -0.1153   ZZ=    19.0412
   Eigenvalues:   -61.4450    20.9610   187.8829
     51  C    Isotropic =    39.8149   Anisotropy =   200.3792
   XX=   -35.6588   YX=   109.1796   ZX=    20.5997
   XY=    94.6545   YY=   123.0269   ZY=     4.1025
   XZ=    -8.2570   YZ=     9.6086   ZZ=    32.0766
   Eigenvalues:   -85.5309    31.5746   173.4010
     52  H    Isotropic =    21.1601   Anisotropy =    14.8243
   XX=    21.2928   YX=    -7.3133   ZX=    -5.4713
   XY=    -2.6175   YY=    15.7862   ZY=     0.2849
   XZ=    -6.6395   YZ=     0.2442   ZZ=    26.4014
   Eigenvalues:    12.1784    20.2591    31.0430
     53  C    Isotropic =    96.6279   Anisotropy =   257.0504
   XX=    74.4935   YX=   101.0910   ZX=   -17.0381
   XY=   102.5449   YY=   214.0900   ZY=    28.3442
   XZ=   -38.2431   YZ=    19.3540   ZZ=     1.3002
   Eigenvalues:   -25.9613    47.8502   267.9948
     54  H    Isotropic =    19.9086   Anisotropy =    14.6813
   XX=    16.6780   YX=    -7.3556   ZX=     0.7680
   XY=    -1.7202   YY=    13.6714   ZY=     1.5167
   XZ=    -0.3690   YZ=     2.9002   ZZ=    29.3763
   Eigenvalues:    10.2033    19.8264    29.6961
     55  C    Isotropic =    58.8877   Anisotropy =   181.5171
   XX=    36.9215   YX=    62.9891   ZX=    59.9280
   XY=    57.6166   YY=   151.9964   ZY=    -1.1821
   XZ=    29.1219   YZ=     5.5867   ZZ=   -12.2548
   Eigenvalues:   -43.4203    40.1843   179.8991
     56  H    Isotropic =    22.8762   Anisotropy =     7.0097
   XX=    21.5107   YX=    -3.8218   ZX=     0.3971
   XY=    -1.1835   YY=    19.6067   ZY=     1.0073
   XZ=    -0.5111   YZ=    -0.0357   ZZ=    27.5113
   Eigenvalues:    17.8671    23.2122    27.5494
     57  H    Isotropic =    25.8983   Anisotropy =     3.9438
   XX=    22.9260   YX=    -0.6544   ZX=    -1.8736
   XY=     3.0807   YY=    28.0549   ZY=     1.9176
   XZ=    -4.2801   YZ=    -0.9067   ZZ=    26.7140
   Eigenvalues:    20.9664    28.2011    28.5275
     58  H    Isotropic =    26.5091   Anisotropy =     4.6072
   XX=    26.1276   YX=     0.3041   ZX=     1.0249
   XY=     1.7369   YY=    29.2771   ZY=     1.3240
   XZ=    -0.3811   YZ=    -1.7198   ZZ=    24.1227
   Eigenvalues:    24.0462    25.9006    29.5806
     59  C    Isotropic =    32.5942   Anisotropy =   200.1599
   XX=   106.0388   YX=    60.1360   ZX=   -48.6329
   XY=    72.9827   YY=    24.9257   ZY=     9.7469
   XZ=  -105.8325   YZ=    -2.2452   ZZ=   -33.1819
   Eigenvalues:   -78.2182     9.9667   166.0342
     60  C    Isotropic =    25.4360   Anisotropy =   166.0782
   XX=    99.4557   YX=    16.2889   ZX=   -53.7399
   XY=    30.3656   YY=    -0.1028   ZY=   -56.8488
   XZ=   -56.4740   YZ=   -65.7978   ZZ=   -23.0448
   Eigenvalues:   -78.7932    18.9464   136.1549
     61  C    Isotropic =    33.3948   Anisotropy =   188.7654
   XX=   108.5862   YX=    65.6732   ZX=   -34.1659
   XY=    88.6278   YY=   -52.8581   ZY=   -38.9844
   XZ=   -45.9981   YZ=   -16.1903   ZZ=    44.4562
   Eigenvalues:   -84.7557    25.7016   159.2384
     62  C    Isotropic =    49.5659   Anisotropy =   175.4621
   XX=   112.3040   YX=    65.6972   ZX=   -45.3268
   XY=    73.1560   YY=   -24.8489   ZY=   -33.0172
   XZ=   -37.2183   YZ=   -35.3904   ZZ=    61.2426
   Eigenvalues:   -56.2084    38.3654   166.5406
     63  H    Isotropic =    24.3923   Anisotropy =    12.3352
   XX=    26.2079   YX=    -4.2633   ZX=     0.4375
   XY=    -6.1356   YY=    25.2859   ZY=    -4.0326
   XZ=     3.1661   YZ=    -4.4337   ZZ=    21.6832
   Eigenvalues:    18.4921    22.0691    32.6158
     64  C    Isotropic =    48.1788   Anisotropy =   186.5408
   XX=   127.9160   YX=    33.7158   ZX=   -55.9354
   XY=    37.2277   YY=    19.6910   ZY=   -75.7655
   XZ=   -56.8203   YZ=   -62.7372   ZZ=    -3.0705
   Eigenvalues:   -64.3138    36.3109   172.5393
     65  H    Isotropic =    20.8375   Anisotropy =    15.0586
   XX=    21.1912   YX=    -0.5499   ZX=     7.6468
   XY=    -0.0827   YY=    15.3362   ZY=    -3.5442
   XZ=     5.1710   YZ=    -2.3947   ZZ=    25.9851
   Eigenvalues:    14.1303    17.5056    30.8766
     66  C    Isotropic =    34.4197   Anisotropy =   128.5987
   XX=    78.6429   YX=    34.7932   ZX=   -44.4901
   XY=    47.3378   YY=    33.6593   ZY=     9.3972
   XZ=   -69.6305   YZ=     7.0031   ZZ=    -9.0430
   Eigenvalues:   -46.1240    29.2311   120.1522
     67  H    Isotropic =    25.2185   Anisotropy =     4.0526
   XX=    26.4137   YX=    -0.6814   ZX=     1.7141
   XY=     0.0771   YY=    23.1800   ZY=    -1.5952
   XZ=     1.0971   YZ=    -1.0409   ZZ=    26.0616
   Eigenvalues:    22.6521    25.0830    27.9202
     68  H    Isotropic =    23.7440   Anisotropy =     6.3127
   XX=    24.5110   YX=    -2.5049   ZX=     1.5068
   XY=    -1.1950   YY=    22.3287   ZY=    -3.8525
   XZ=     1.0222   YZ=    -2.3590   ZZ=    24.3925
   Eigenvalues:    19.9399    23.3397    27.9525
     69  H    Isotropic =    25.6121   Anisotropy =     2.6394
   XX=    26.3959   YX=     0.0327   ZX=    -0.9962
   XY=     0.9540   YY=    25.6329   ZY=    -0.7774
   XZ=    -1.6984   YZ=     0.0918   ZZ=    24.8074
   Eigenvalues:    24.0358    25.4288    27.3717
     70  Sn   Isotropic =  1987.8342   Anisotropy =   414.1562
   XX=  2256.4916   YX=    43.8830   ZX=     0.5611
   XY=    59.2260   YY=  1905.0174   ZY=    18.2418
   XZ=   -11.0905   YZ=    -5.8818   ZZ=  1801.9935
   Eigenvalues:  1801.4626  1898.1016  2263.9383
     71  C    Isotropic =   150.5859   Anisotropy =   365.0832
   XX=   258.2560   YX=   104.2160   ZX=    -4.0249
   XY=   202.1988   YY=   215.2878   ZY=   -33.7369
   XZ=   -22.6411   YZ=   -33.6860   ZZ=   -21.7862
   Eigenvalues:   -26.8204    84.6033   393.9747
     72  C    Isotropic =   113.2784   Anisotropy =   246.9367
   XX=   173.4281   YX=   101.4011   ZX=   -29.0288
   XY=   124.4620   YY=   150.6724   ZY=   -21.5713
   XZ=     0.1811   YZ=   -20.5103   ZZ=    15.7348
   Eigenvalues:    12.4215    49.5109   277.9029
     73  C    Isotropic =   105.3110   Anisotropy =   243.4473
   XX=   166.2539   YX=   104.8552   ZX=     3.6535
   XY=   114.8002   YY=   145.1417   ZY=   -15.5000
   XZ=   -31.5477   YZ=   -14.3865   ZZ=     4.5374
   Eigenvalues:     2.8937    45.4301   267.6092
     74  C    Isotropic =    54.6537   Anisotropy =   114.9672
   XX=    91.2194   YX=    53.7104   ZX=   -27.3399
   XY=    45.4935   YY=    64.1580   ZY=    32.5234
   XZ=    20.3497   YZ=    29.2026   ZZ=     8.5838
   Eigenvalues:   -11.8499    44.5126   131.2986
     75  H    Isotropic =    18.9141   Anisotropy =    21.0493
   XX=    18.1970   YX=    -7.5610   ZX=     5.8276
   XY=   -17.4777   YY=    14.8987   ZY=    -2.8039
   XZ=    -0.3692   YZ=    -8.7225   ZZ=    23.6466
   Eigenvalues:     3.5776    20.2177    32.9470
     76  C    Isotropic =    47.8563   Anisotropy =    97.6480
   XX=    82.0053   YX=    52.7357   ZX=    12.9604
   XY=    27.9119   YY=    29.3947   ZY=   -39.2792
   XZ=   -29.8039   YZ=   -37.4697   ZZ=    32.1689
   Eigenvalues:   -14.1498    44.7637   112.9549
     77  H    Isotropic =    19.8017   Anisotropy =    19.2930
   XX=    20.7688   YX=    -8.2498   ZX=    -2.6926
   XY=   -14.1572   YY=    19.7027   ZY=     3.6426
   XZ=     4.6815   YZ=     9.6971   ZZ=    18.9334
   Eigenvalues:     6.4590    20.2823    32.6637
     78  C    Isotropic =    -3.0910   Anisotropy =    53.2008
   XX=    23.4676   YX=     3.6992   ZX=    -1.2877
   XY=   -32.4866   YY=   -62.8945   ZY=    14.3328
   XZ=     5.4827   YZ=    14.7596   ZZ=    30.1537
   Eigenvalues:   -67.4427    25.7934    32.3762
     79  H    Isotropic =    26.1455   Anisotropy =     3.6991
   XX=    27.5481   YX=    -1.0161   ZX=     0.8016
   XY=    -0.0958   YY=    27.4907   ZY=     0.3966
   XZ=    -3.6673   YZ=    -5.1967   ZZ=    23.3977
   Eigenvalues:    21.8752    27.9497    28.6115
     80  H    Isotropic =    26.6028   Anisotropy =     4.8488
   XX=    28.3211   YX=    -0.7712   ZX=     0.3617
   XY=     2.0035   YY=    28.9200   ZY=    -1.7857
   XZ=     3.7582   YZ=     3.5547   ZZ=    22.5674
   Eigenvalues:    21.8446    28.1285    29.8353
     81  H    Isotropic =    27.6750   Anisotropy =     7.6279
   XX=    28.1188   YX=     1.3076   ZX=     0.0977
   XY=     5.9456   YY=    29.8311   ZY=    -0.4961
   XZ=    -0.8442   YZ=    -0.6316   ZZ=    25.0751
   Eigenvalues:    25.0028    25.2619    32.7603
     82  Br   Isotropic =  2514.0685   Anisotropy =  1188.8966
   XX=  1978.8245   YX=   176.1270   ZX=   188.0744
   XY=  -107.5956   YY=  2282.5943   ZY=    82.6293
   XZ=   179.8848   YZ=   -52.2614   ZZ=  3280.7866
   Eigenvalues:  1950.2693  2285.2698  3306.6662
     83  Br   Isotropic =  2368.5477   Anisotropy =   533.6192
   XX=  2361.3626   YX=   166.2045   ZX=   110.8032
   XY=   247.3725   YY=  2204.9496   ZY=   244.6048
   XZ=   139.2075   YZ=    90.3504   ZZ=  2539.3308
   Eigenvalues:  2050.9911  2330.3581  2724.2938
     84  Br   Isotropic =  2361.4402   Anisotropy =   587.1413
   XX=  2371.6885   YX=    96.8900   ZX=  -222.5781
   XY=   156.4771   YY=  2145.3962   ZY=  -112.2142
   XZ=  -256.2569   YZ=   -11.0066   ZZ=  2567.2360
   Eigenvalues:  2083.1455  2248.3074  2752.8678
 End of Minotr F.D. properties file   721 does not exist.
 End of Minotr F.D. properties file   722 does not exist.
 End of Minotr F.D. properties file   788 does not exist.
 Leave Link 1002 at Mon Nov 25 08:38:56 2019, MaxMem=   939524096 cpu:    122155.0
 (Enter /scr/programas/g09/l601.exe)
 Copying SCF densities to generalized density rwf, IOpCl= 0 IROHF=0.

 **********************************************************************

            Population analysis using the SCF density.

 **********************************************************************

 Orbital symmetries:
       Occupied  (A) (A) (A) (A) (A) (A) (A) (A) (A) (A) (A) (A)
                 (A) (A) (A) (A) (A) (A) (A) (A) (A) (A) (A) (A)
                 (A) (A) (A) (A) (A) (A) (A) (A) (A) (A) (A) (A)
                 (A) (A) (A) (A) (A) (A) (A) (A) (A) (A) (A) (A)
                 (A) (A) (A) (A) (A) (A) (A) (A) (A) (A) (A) (A)
                 (A) (A) (A) (A) (A) (A) (A) (A) (A) (A) (A) (A)
                 (A) (A) (A) (A) (A) (A) (A) (A) (A) (A) (A) (A)
                 (A) (A) (A) (A) (A) (A) (A) (A) (A) (A) (A) (A)
                 (A) (A) (A) (A) (A) (A) (A) (A) (A) (A) (A) (A)
                 (A) (A) (A) (A) (A) (A) (A) (A) (A) (A) (A) (A)
                 (A) (A) (A) (A) (A) (A) (A) (A) (A) (A) (A) (A)
                 (A) (A) (A) (A) (A) (A) (A) (A) (A) (A) (A) (A)
                 (A) (A) (A) (A) (A) (A) (A) (A) (A) (A) (A) (A)
                 (A) (A) (A) (A) (A) (A) (A) (A) (A) (A) (A) (A)
                 (A) (A) (A) (A) (A) (A) (A) (A) (A) (A) (A) (A)
                 (A) (A) (A) (A) (A) (A) (A) (A) (A) (A) (A) (A)
                 (A) (A) (A) (A) (A) (A) (A) (A) (A) (A) (A) (A)
                 (A) (A) (A) (A) (A) (A) (A) (A) (A) (A) (A) (A)
                 (A) (A) (A) (A) (A) (A) (A) (A) (A) (A) (A) (A)
                 (A) (A) (A) (A) (A) (A) (A) (A) (A) (A) (A) (A)
                 (A) (A) (A) (A) (A) (A) (A) (A) (A) (A) (A) (A)
                 (A) (A) (A) (A) (A) (A) (A) (A) (A) (A) (A) (A)
                 (A) (A) (A) (A) (A) (A) (A) (A) (A) (A) (A)
       Virtual   (A) (A) (A) (A) (A) (A) (A) (A) (A) (A) (A) (A)
                 (A) (A) (A) (A) (A) (A) (A) (A) (A) (A) (A) (A)
                 (A) (A) (A) (A) (A) (A) (A) (A) (A) (A) (A) (A)
[...]
 Alpha virt. eigenvalues --    1.66156   1.66454   1.66645   1.66856   1.67219
 Alpha virt. eigenvalues --    1.67405   1.67537   1.67915   1.68065   1.68180
 Alpha virt. eigenvalues --    1.68470   1.68687   1.68994   1.69053   1.69233
 Alpha virt. eigenvalues --    1.69342   1.69434   1.69554   1.69937   1.70218
 Alpha virt. eigenvalues --    1.70457   1.70559   1.70869   1.71142   1.71228
 Alpha virt. eigenvalues --    1.71692   1.71880   1.72042   1.72122   1.72307
 Alpha virt. eigenvalues --    1.72483   1.72898   1.73078   1.73602   1.73730
 Alpha virt. eigenvalues --    1.73932   1.74277   1.74420   1.74807   1.75303
 Alpha virt. eigenvalues --    1.75641   1.75753   1.75880   1.76358   1.76962
 Alpha virt. eigenvalues --    1.77152   1.77642   1.77882   1.78009   1.78450
 Alpha virt. eigenvalues --    1.78509   1.78763   1.79465   1.79929   1.80053
 Alpha virt. eigenvalues --    1.80741   1.81017   1.81885   1.82474   1.82748
 Alpha virt. eigenvalues --    1.82809   1.83593   1.83793   1.84144   1.84604
 Alpha virt. eigenvalues --    1.85565   1.85883   1.86104   1.86915   1.87428
 Alpha virt. eigenvalues --    1.87850   1.87933   1.88247   1.88659   1.88954
 Alpha virt. eigenvalues --    1.89252   1.89712   1.89938   1.90023   1.90550
 Alpha virt. eigenvalues --    1.90835   1.91247   1.91526   1.92574   1.92659
 Alpha virt. eigenvalues --    1.93017   1.93396   1.93720   1.93875   1.94363
 Alpha virt. eigenvalues --    1.94594   1.94677   1.95101   1.95475   1.95762
 Alpha virt. eigenvalues --    1.95931   1.96351   1.97371   1.97891   1.98373
 Alpha virt. eigenvalues --    1.98431   1.98794   1.99116   1.99633   1.99957
 Alpha virt. eigenvalues --    2.00419   2.00871   2.01295   2.01524   2.01863
 Alpha virt. eigenvalues --    2.02113   2.02345   2.02584   2.02852   2.03061
 Alpha virt. eigenvalues --    2.03580   2.03919   2.04096   2.04481   2.04793
 Alpha virt. eigenvalues --    2.04920   2.05434   2.05723   2.06103   2.06219
 Alpha virt. eigenvalues --    2.06393   2.07186   2.07311   2.07882   2.08109
 Alpha virt. eigenvalues --    2.08628   2.08976   2.09340   2.09841   2.10208
 Alpha virt. eigenvalues --    2.10526   2.10777   2.10951   2.11362   2.11912
 Alpha virt. eigenvalues --    2.12262   2.12848   2.13045   2.13531   2.13907
 Alpha virt. eigenvalues --    2.14236   2.14615   2.15179   2.15418   2.15936
 Alpha virt. eigenvalues --    2.15986   2.16619   2.16925   2.17417   2.17853
 Alpha virt. eigenvalues --    2.18180   2.18197   2.18625   2.19381   2.19450
 Alpha virt. eigenvalues --    2.20034   2.20378   2.20576   2.20690   2.21137
 Alpha virt. eigenvalues --    2.21420   2.21730   2.22148   2.22586   2.23334
 Alpha virt. eigenvalues --    2.23629   2.23907   2.24409   2.24880   2.25129
 Alpha virt. eigenvalues --    2.25874   2.26422   2.26949   2.27310   2.28420
 Alpha virt. eigenvalues --    2.28957   2.29570   2.29737   2.29836   2.30305
 Alpha virt. eigenvalues --    2.30889   2.30965   2.31312   2.31790   2.32380
 Alpha virt. eigenvalues --    2.32775   2.32997   2.33365   2.33561   2.33903
 Alpha virt. eigenvalues --    2.34223   2.34376   2.35117   2.35432   2.35868
 Alpha virt. eigenvalues --    2.36117   2.36554   2.36780   2.37742   2.37839
 Alpha virt. eigenvalues --    2.38256   2.38951   2.39104   2.39233   2.39705
 Alpha virt. eigenvalues --    2.40065   2.40641   2.40818   2.41081   2.41868
 Alpha virt. eigenvalues --    2.41984   2.42158   2.42498   2.42825   2.43283
 Alpha virt. eigenvalues --    2.44044   2.44257   2.45068   2.45290   2.46591
 Alpha virt. eigenvalues --    2.46673   2.46785   2.47546   2.48500   2.49345
 Alpha virt. eigenvalues --    2.49820   2.50312   2.50619   2.50794   2.51542
 Alpha virt. eigenvalues --    2.52213   2.53325   2.53633   2.54015   2.54517
 Alpha virt. eigenvalues --    2.54926   2.55748   2.56178   2.56973   2.57133
 Alpha virt. eigenvalues --    2.57318   2.57854   2.58054   2.58943   2.59145
 Alpha virt. eigenvalues --    2.59859   2.60475   2.61154   2.61479   2.62207
 Alpha virt. eigenvalues --    2.62661   2.62801   2.62940   2.63703   2.64071
 Alpha virt. eigenvalues --    2.64375   2.64930   2.65493   2.65895   2.66502
 Alpha virt. eigenvalues --    2.66915   2.67308   2.67974   2.68579   2.68882
 Alpha virt. eigenvalues --    2.69818   2.70010   2.70458   2.71002   2.71195
 Alpha virt. eigenvalues --    2.71637   2.71708   2.72182   2.72674   2.72973
 Alpha virt. eigenvalues --    2.73298   2.73581   2.74482   2.74741   2.75039
 Alpha virt. eigenvalues --    2.75644   2.75896   2.76214   2.76918   2.77423
 Alpha virt. eigenvalues --    2.77749   2.77944   2.78316   2.79076   2.79873
 Alpha virt. eigenvalues --    2.80110   2.80453   2.81378   2.81995   2.83227
 Alpha virt. eigenvalues --    2.83703   2.84155   2.84995   2.85502   2.85729
 Alpha virt. eigenvalues --    2.86062   2.86839   2.87460   2.87950   2.88504
 Alpha virt. eigenvalues --    2.89194   2.89527   2.90219   2.90604   2.91291
 Alpha virt. eigenvalues --    2.91811   2.92805   2.93499   2.94015   2.94240
 Alpha virt. eigenvalues --    2.94732   2.94981   2.95113   2.95820   2.96120
 Alpha virt. eigenvalues --    2.96725   2.96809   2.97583   2.98459   2.98722
 Alpha virt. eigenvalues --    2.98898   2.99297   2.99322   2.99677   3.00029
 Alpha virt. eigenvalues --    3.00370   3.00701   3.01235   3.01572   3.01956
 Alpha virt. eigenvalues --    3.02411   3.02634   3.03100   3.05098   3.06549
 Alpha virt. eigenvalues --    3.06968   3.07314   3.08799   3.09082   3.09434
 Alpha virt. eigenvalues --    3.09745   3.11068   3.12882   3.13642   3.14018
 Alpha virt. eigenvalues --    3.14121   3.14731   3.14933   3.15451   3.15829
 Alpha virt. eigenvalues --    3.16149   3.16468   3.16966   3.17457   3.17864
 Alpha virt. eigenvalues --    3.18529   3.19018   3.20724   3.21074   3.21647
 Alpha virt. eigenvalues --    3.22113   3.22490   3.23124   3.23605   3.24032
 Alpha virt. eigenvalues --    3.24748   3.25372   3.25830   3.26631   3.26695
 Alpha virt. eigenvalues --    3.29309   3.30617   3.32326   3.33353   3.34617
 Alpha virt. eigenvalues --    3.34959   3.36262   3.36430   3.38318   3.38844
 Alpha virt. eigenvalues --    3.43440   3.44480   3.45663   3.47263   3.47872
 Alpha virt. eigenvalues --    3.48781   3.49722   3.49923   3.50334   3.51055
 Alpha virt. eigenvalues --    3.52693   3.53228   3.53358   3.53971   3.54242
 Alpha virt. eigenvalues --    3.55326   3.56413   3.73541   3.75231   3.92170
 Alpha virt. eigenvalues --    3.95285   3.97831   3.98507   4.03480   4.04229
 Alpha virt. eigenvalues --    4.06328   4.09771   4.13271   4.13774   4.14753
 Alpha virt. eigenvalues --    4.14970   4.15247   4.15720   4.16157   4.17164
 Alpha virt. eigenvalues --    4.17502   4.17869   4.18396   4.20249   4.21701
 Alpha virt. eigenvalues --    4.22801   4.23421   4.24286   4.24554   4.27430
 Alpha virt. eigenvalues --    4.28723   4.29912   4.30577   4.30720   4.31317
 Alpha virt. eigenvalues --    4.31876   4.32527   4.32883   4.33263   4.33433
 Alpha virt. eigenvalues --    4.33719   4.34325   4.34937   4.34972   4.35352
 Alpha virt. eigenvalues --    4.36077   4.36241   4.36495   4.36841   4.37335
 Alpha virt. eigenvalues --    4.37439   4.38377   4.38542   4.38940   4.39156
 Alpha virt. eigenvalues --    4.39319   4.40092   4.40589   4.40669   4.41574
 Alpha virt. eigenvalues --    4.42342   4.43175   4.43942   4.44467   4.45621
 Alpha virt. eigenvalues --    4.46004   4.46480   4.47316   4.48893   4.50353
 Alpha virt. eigenvalues --    4.52835   4.53037   4.54159   4.55717   4.56536
 Alpha virt. eigenvalues --    4.57202   4.57883   4.77625   4.77942   4.78366
 Alpha virt. eigenvalues --    4.79222   4.79531   4.79912   4.80828   5.55407
 Alpha virt. eigenvalues --    5.60176   5.78532   5.88531   5.92588   5.95937
 Alpha virt. eigenvalues --    5.97497   5.97810   5.98201   5.99444   6.01008
 Alpha virt. eigenvalues --    6.01795   6.04254   6.07342   6.09533   6.11093
 Alpha virt. eigenvalues --    6.12469   6.17905   6.31216   6.32581   6.33484
 Alpha virt. eigenvalues --    6.59689   6.63564   6.63939   6.64738   6.66410
 Alpha virt. eigenvalues --    6.68436   6.68733   6.73604   6.78098   6.78557
 Alpha virt. eigenvalues --    6.80503   6.80574   6.83307   6.84244   6.84637
 Alpha virt. eigenvalues --    6.86375   6.87224   6.88487   6.90269   6.91423
 Alpha virt. eigenvalues --    6.94021   6.94716   6.96931   6.98383   6.98853
 Alpha virt. eigenvalues --    7.00699   7.02870   7.06993   7.07870   7.08769
 Alpha virt. eigenvalues --    7.12865   7.13239   7.15361   7.20957   7.25001
 Alpha virt. eigenvalues --    7.26301   7.26964   7.28389   7.29606   7.31173
 Alpha virt. eigenvalues --    7.75597   7.79606   7.80214   7.81794   7.82877
 Alpha virt. eigenvalues --    7.85430   8.48135   8.49268   8.49518   8.49987
 Alpha virt. eigenvalues --    8.50788   8.51655   8.54339   8.57429   8.59043
 Alpha virt. eigenvalues --    9.01280   9.96168  10.01748  10.04784  10.07663
 Alpha virt. eigenvalues --   10.21318  14.12910  14.16372  14.20307  14.23068
 Alpha virt. eigenvalues --   14.32211  15.67223  16.95593  17.02627  17.03785
 Alpha virt. eigenvalues --   17.04050  17.04246  17.05255  17.05510  17.05694
 Alpha virt. eigenvalues --   17.05991  17.06917  17.07590  17.08496  17.09051
 Alpha virt. eigenvalues --   17.09237  17.09620  17.12438  17.13058  17.14454
 Alpha virt. eigenvalues --   17.15141  17.16907  17.17236  17.19235  17.20502
 Alpha virt. eigenvalues --   17.21381  17.23708  17.25963  17.28211  17.29074
 Alpha virt. eigenvalues --   17.30704  17.31853  17.32427  17.32827  17.33450
 Alpha virt. eigenvalues --   17.33661  17.34229  17.35338  17.35775  17.37170
 Alpha virt. eigenvalues --   17.38164  17.39635  17.43052  17.44039  20.29590
 Alpha virt. eigenvalues --   20.32161  20.35546  20.36371  20.37029  20.38035
 Alpha virt. eigenvalues --   20.39456  20.47917  20.51513  21.09854  21.30709
 Alpha virt. eigenvalues --   21.32961  25.53360  25.56194  25.72588  26.15221
 Alpha virt. eigenvalues --   31.71369  31.74561  31.77179  31.78011  31.83469
 Alpha virt. eigenvalues --   42.97083  43.00594  43.01464  43.04434  43.13451
 Alpha virt. eigenvalues --   61.89750  61.92574  63.04022  65.17734  65.20783
 Alpha virt. eigenvalues --   65.34662  82.18691  86.20143  86.38066  86.39118
 Alpha virt. eigenvalues --   89.17193  89.29563  89.29667  89.29955  89.30410
 Alpha virt. eigenvalues --   89.31561  89.32214  89.32351  89.32686  89.33157
 Alpha virt. eigenvalues --   89.33949  89.34909  89.35390  89.35758  89.36310
 Alpha virt. eigenvalues --   89.38236  89.39431  89.40198  89.40465  89.42368
 Alpha virt. eigenvalues --   89.43189  89.44492  89.45892  89.47582  89.49608
 Alpha virt. eigenvalues --   89.52032  89.54012  89.55521  89.56649  89.58327
 Alpha virt. eigenvalues --   89.59813  89.60574  89.60970  89.61116  89.61370
 Alpha virt. eigenvalues --   89.62327  89.62722  89.64484  89.64973  89.66697
 Alpha virt. eigenvalues --   89.69867  89.70231 112.73865 112.75713 112.78164
 Alpha virt. eigenvalues --  112.78740 112.79256 112.79847 112.80696 112.87036
 Alpha virt. eigenvalues --  112.89494 121.87406 121.89453 122.01261 239.21825
 Alpha virt. eigenvalues --  257.29974 282.51247 282.53879 282.66163 332.22916
 Alpha virt. eigenvalues --  332.25893 428.79053 428.92886 428.93978 590.24337
 Alpha virt. eigenvalues --  590.25915 590.35028 772.97638 839.617361043.67142
 Alpha virt. eigenvalues -- 1043.694391043.803052068.576892529.993185495.37774
 Alpha virt. eigenvalues -- 5634.552125634.582325634.72390********************
 Alpha virt. eigenvalues -- **********
          Condensed to atoms (all electrons):
 Mulliken charges:
               1
     1  Pt   0.386703
     2  P    1.161957
     3  P    0.964680
     4  C   -0.806919
     5  C    0.365247
     6  C    0.287875
     7  C    0.055156
     8  H    0.099049
     9  C   -0.219448
    10  H    0.082125
    11  C   -0.647427
    12  H    0.146051
    13  H    0.143758
    14  H    0.157209
    15  C   -0.810142
    16  C    0.665554
    17  C    0.229882
    18  C   -0.087193
    19  H    0.068216
    20  C   -0.257580
    21  H    0.103589
    22  C   -0.584372
    23  H    0.144503
    24  H    0.146974
    25  H    0.156417
    26  C   -0.989404
    27  C    0.530659
    28  C    0.302358
    29  C   -0.041338
    30  H    0.067795
    31  C   -0.196310
    32  H    0.072357
    33  C   -0.567746
    34  H    0.124712
    35  H    0.133136
    36  H    0.146513
    37  C   -0.951108
    38  C    0.252761
    39  C    0.398266
    40  C   -0.107702
    41  H    0.084965
    42  C   -0.022583
    43  H    0.102787
    44  C   -0.500394
    45  H    0.136465
    46  H    0.136529
    47  H    0.149891
    48  C   -0.747941
    49  C    0.464348
    50  C    0.344337
    51  C   -0.171864
    52  H    0.055503
    53  C   -0.071803
    54  H    0.070268
    55  C   -0.538865
    56  H    0.129187
    57  H    0.137139
    58  H    0.151581
    59  C   -0.810411
    60  C    0.181799
    61  C    0.592870
    62  C    0.020717
    63  H    0.094300
    64  C   -0.226339
    65  H    0.046909
    66  C   -0.581925
    67  H    0.144086
    68  H    0.123943
    69  H    0.150706
    70  Sn  -0.023563
    71  C    0.108753
    72  C   -0.180239
    73  C   -0.080388
    74  C   -0.131399
    75  H    0.141516
    76  C   -0.158329
    77  H    0.137824
    78  C   -0.412362
    79  H    0.158639
    80  H    0.157886
    81  H    0.158099
    82  Br  -0.244875
    83  Br  -0.206354
    84  Br  -0.198224
 Sum of Mulliken charges =   0.00000
 Mulliken charges with hydrogens summed into heavy atoms:
               1
     1  Pt   0.386703
     2  P    1.161957
     3  P    0.964680
     4  C   -0.806919
     5  C    0.464296
     6  C    0.370000
     7  C    0.201207
     9  C   -0.075690
    11  C   -0.490218
    15  C   -0.810142
    16  C    0.733770
    17  C    0.333471
    18  C    0.057310
    20  C   -0.110606
    22  C   -0.427955
    26  C   -0.989404
    27  C    0.598454
    28  C    0.374715
    29  C    0.083374
    31  C   -0.063174
    33  C   -0.421233
    37  C   -0.951108
    38  C    0.337726
    39  C    0.501052
    40  C    0.028763
    42  C    0.113946
    44  C   -0.350503
    48  C   -0.747941
    49  C    0.519851
    50  C    0.414606
    51  C   -0.042677
    53  C    0.065335
    55  C   -0.387284
    59  C   -0.810411
    60  C    0.276098
    61  C    0.639779
    62  C    0.164803
    64  C   -0.102396
    66  C   -0.431219
    70  Sn  -0.023563
    71  C    0.108753
    72  C   -0.038723
    73  C    0.057436
    74  C    0.027240
    76  C   -0.000443
    78  C   -0.254263
    82  Br  -0.244875
    83  Br  -0.206354
    84  Br  -0.198224
 Electronic spatial extent (au):  <R**2>=          35973.9367
 Charge=              0.0000 electrons
 Dipole moment (field-independent basis, Debye):
    X=            -15.9646    Y=              3.4734    Z=              1.4655  Tot=             16.4037
 Quadrupole moment (field-independent basis, Debye-Ang):
   XX=           -374.6795   YY=           -351.2316   ZZ=           -342.7431
   XY=             -9.5807   XZ=              4.4312   YZ=             -1.6805
 Traceless Quadrupole moment (field-independent basis, Debye-Ang):
   XX=            -18.4614   YY=              4.9864   ZZ=             13.4750
   XY=             -9.5807   XZ=              4.4312   YZ=             -1.6805
 Octapole moment (field-independent basis, Debye-Ang**2):
  XXX=             99.0669  YYY=            -12.5621  ZZZ=             -1.2231  XYY=             48.4346
  XXY=            -37.8204  XXZ=             -2.5787  XZZ=            -14.2822  YZZ=            -46.1255
  YYZ=            -25.0438  XYZ=             -0.2168
 Hexadecapole moment (field-independent basis, Debye-Ang**3):
 XXXX=         -22020.6552 YYYY=         -14916.5651 ZZZZ=          -8189.4372 XXXY=           -622.4518
 XXXZ=            -51.6102 YYYX=            420.0504 YYYZ=            112.1724 ZZZX=             28.8520
 ZZZY=             57.4744 XXYY=          -5486.7797 XXZZ=          -4883.7696 YYZZ=          -3747.2415
 XXYZ=           -167.2829 YYXZ=            -51.3105 ZZXY=            -15.3613
 N-N= 1.607986611628D+04 E-N=-1.105962513541D+05  KE= 3.265967896245D+04
 Calculating spin-rotation constants.
 Leave Link  601 at Mon Nov 25 08:55:23 2019, MaxMem=   939524096 cpu:      1154.7
 (Enter /scr/programas/g09/l9999.exe)
 1\1\GINC-NQTCM\SP\RPBEPBE\Gen\C42H35Br3P2Pt1Sn1\NQTCM\25-Nov-2019\0\\#
 PBEPBE/gen scf=(maxcycle=500,conver=3) NMR=GIAO Scrf=(solvent=Dichloro
 methane)\\estrutura 102\\0,1\Pt,0,0.097601,0.320955,-0.150271\P,0,2.37
 6613,1.298392,-0.057015\P,0,0.63057,-1.930111,0.043816\C,0,2.636496,2.
 147185,1.558458\C,0,3.789183,2.93105,1.769409\C,0,1.733486,1.963206,2.
 615306\C,0,4.00671,3.547808,3.00318\H,0,4.5279,3.055414,0.972633\C,0,1
 .965322,2.561761,3.859001\H,0,0.849941,1.336795,2.472536\C,0,3.093658,
 3.365074,4.050406\H,0,4.894855,4.169066,3.148208\H,0,1.261153,2.398306
 ,4.678082\H,0,3.267969,3.842449,5.018244\C,0,2.516655,2.588476,-1.3745
 25\C,0,2.403833,2.188545,-2.718916\C,0,2.661383,3.956597,-1.090177\C,0
 ,2.482275,3.123476,-3.753467\H,0,2.234937,1.140947,-2.971853\C,0,2.732
 44,4.891967,-2.127731\H,0,2.690125,4.310718,-0.059043\C,0,2.654231,4.4
 79955,-3.460832\H,0,2.398907,2.788628,-4.790366\H,0,2.841039,5.952303,
 -1.886325\H,0,2.710603,5.213646,-4.268649\C,0,3.957926,0.33215,-0.1894
 5\C,0,4.453612,-0.292548,0.970564\C,0,4.687395,0.207243,-1.384661\C,0,
 5.646827,-1.017763,0.936217\H,0,3.916686,-0.20122,1.915996\C,0,5.87974
 4,-0.521743,-1.416594\H,0,4.348914,0.692347,-2.299749\C,0,6.364596,-1.
 136825,-0.258285\H,0,6.016695,-1.488152,1.85115\H,0,6.433521,-0.601969
 ,-2.355889\H,0,7.30112,-1.699356,-0.285019\C,0,-0.67926,-3.226721,-0.1
 32801\C,0,-1.055411,-4.080095,0.916105\C,0,-1.245252,-3.41537,-1.40659
 4\C,0,-1.980303,-5.105206,0.692036\H,0,-0.631998,-3.954755,1.913135\C,
 0,-2.170939,-4.436431,-1.624609\H,0,-0.960094,-2.768167,-2.238858\C,0,
 -2.539707,-5.286262,-0.57555\H,0,-2.264846,-5.762133,1.518286\H,0,-2.6
 04625,-4.567515,-2.619154\H,0,-3.262558,-6.087698,-0.747407\C,0,1.3357
 8,-2.219282,1.72187\C,0,2.583484,-2.814874,1.960953\C,0,0.562274,-1.79
 2389,2.819999\C,0,3.042147,-2.992605,3.270959\H,0,3.218223,-3.126859,1
 .132248\C,0,1.022895,-1.975662,4.125035\H,0,-0.411119,-1.324236,2.6569
 04\C,0,2.265054,-2.576909,4.355214\H,0,4.018189,-3.453384,3.440457\H,0
 ,0.408789,-1.643443,4.966296\H,0,2.626888,-2.717045,5.376515\C,0,1.796
 698,-2.54991,-1.244154\C,0,2.340002,-3.848465,-1.169474\C,0,2.015594,-
 1.789748,-2.40185\C,0,3.128174,-4.342671,-2.209877\H,0,2.132481,-4.489
 39,-0.310432\C,0,2.787216,-2.295487,-3.453154\H,0,1.552026,-0.804521,-
 2.489866\C,0,3.356594,-3.568045,-3.352709\H,0,3.554932,-5.346772,-2.13
 2851\H,0,2.941277,-1.69178,-4.351068\H,0,3.965465,-3.962973,-4.169956\
 Sn,0,-2.573863,0.14728,-0.074914\C,0,-4.041785,1.744025,0.238491\C,0,-
 4.474295,2.073353,1.530251\C,0,-4.546912,2.465012,-0.856453\C,0,-5.396
 053,3.109339,1.728755\H,0,-4.107686,1.513908,2.396224\C,0,-5.469162,3.
 499874,-0.657245\H,0,-4.233311,2.219432,-1.87324\C,0,-5.894207,3.82496
 1,0.634095\H,0,-5.728896,3.352974,2.741202\H,0,-5.856942,4.051968,-1.5
 18708\H,0,-6.615609,4.632162,0.788226\Br,0,-0.673529,2.780391,-0.24675
 8\Br,0,-3.455435,-1.434142,1.833162\Br,0,-3.582831,-0.780497,-2.310296
 \\Version=EM64L-G09RevD.01\State=1-A\HF=-33097.6385452\RMSD=4.666e-04\
 Dipole=6.2809611,-1.366536,0.5765883\Quadrupole=-13.7256173,3.7073013,
 10.018316,-7.1230364,-3.2945117,1.2493942\PG=C01 [X(C42H35Br3P2Pt1Sn1)
 ]\\@


 We find comfort among those who agree with us -- growth among those who don't.
 -- Frank A. Clark
 Job cpu time:       1 days 22 hours 57 minutes 52.4 seconds.
 File lengths (MBytes):  RWF=   2648 Int=      0 D2E=      0 Chk=    192 Scr=      1
 Normal termination of Gaussian 09 at Mon Nov 25 08:55:23 2019.
