 Entering Gaussian System, Link 0=g09
 Input=estrutura106.com
 Output=estrutura106.log
 Initial command:
 /scr/programas/g09/l1.exe "/scr/nqtcm/Gau-25232.inp" -scrdir="/scr/nqtcm/"
 Entering Link 1 = /scr/programas/g09/l1.exe PID=     25235.
  
 Copyright (c) 1988,1990,1992,1993,1995,1998,2003,2009,2013,
            Gaussian, Inc.  All Rights Reserved.
  
 This is part of the Gaussian(R) 09 program.  It is based on
 the Gaussian(R) 03 system (copyright 2003, Gaussian, Inc.),
 the Gaussian(R) 98 system (copyright 1998, Gaussian, Inc.),
 the Gaussian(R) 94 system (copyright 1995, Gaussian, Inc.),
 the Gaussian 92(TM) system (copyright 1992, Gaussian, Inc.),
 the Gaussian 90(TM) system (copyright 1990, Gaussian, Inc.),
 the Gaussian 88(TM) system (copyright 1988, Gaussian, Inc.),
 the Gaussian 86(TM) system (copyright 1986, Carnegie Mellon
 University), and the Gaussian 82(TM) system (copyright 1983,
 Carnegie Mellon University). Gaussian is a federally registered
 trademark of Gaussian, Inc.
  
 This software contains proprietary and confidential information,
 including trade secrets, belonging to Gaussian, Inc.
  
 This software is provided under written license and may be
 used, copied, transmitted, or stored only in accord with that
 written license.
  
 The following legend is applicable only to US Government
 contracts under FAR:
  
                    RESTRICTED RIGHTS LEGEND
  
 Use, reproduction and disclosure by the US Government is
 subject to restrictions as set forth in subparagraphs (a)
 and (c) of the Commercial Computer Software - Restricted
 Rights clause in FAR 52.227-19.
  
 Gaussian, Inc.
 340 Quinnipiac St., Bldg. 40, Wallingford CT 06492
  
  
 ---------------------------------------------------------------
 Warning -- This program may not be used in any manner that
 competes with the business of Gaussian, Inc. or will provide
 assistance to any competitor of Gaussian, Inc.  The licensee
 of this program is prohibited from giving any competitor of
 Gaussian, Inc. access to this program.  By using this program,
 the user acknowledges that Gaussian, Inc. is engaged in the
 business of creating and licensing software in the field of
 computational chemistry and represents and warrants to the
 licensee that it is not a competitor of Gaussian, Inc. and that
 it will not use this program in any manner prohibited above.
 ---------------------------------------------------------------
  

 Cite this work as:
 Gaussian 09, Revision D.01,
 M. J. Frisch, G. W. Trucks, H. B. Schlegel, G. E. Scuseria, 
 M. A. Robb, J. R. Cheeseman, G. Scalmani, V. Barone, B. Mennucci, 
 G. A. Petersson, H. Nakatsuji, M. Caricato, X. Li, H. P. Hratchian, 
 A. F. Izmaylov, J. Bloino, G. Zheng, J. L. Sonnenberg, M. Hada, 
 M. Ehara, K. Toyota, R. Fukuda, J. Hasegawa, M. Ishida, T. Nakajima, 
 Y. Honda, O. Kitao, H. Nakai, T. Vreven, J. A. Montgomery, Jr., 
 J. E. Peralta, F. Ogliaro, M. Bearpark, J. J. Heyd, E. Brothers, 
 K. N. Kudin, V. N. Staroverov, T. Keith, R. Kobayashi, J. Normand, 
 K. Raghavachari, A. Rendell, J. C. Burant, S. S. Iyengar, J. Tomasi, 
 M. Cossi, N. Rega, J. M. Millam, M. Klene, J. E. Knox, J. B. Cross, 
 V. Bakken, C. Adamo, J. Jaramillo, R. Gomperts, R. E. Stratmann, 
 O. Yazyev, A. J. Austin, R. Cammi, C. Pomelli, J. W. Ochterski, 
 R. L. Martin, K. Morokuma, V. G. Zakrzewski, G. A. Voth, 
 P. Salvador, J. J. Dannenberg, S. Dapprich, A. D. Daniels, 
 O. Farkas, J. B. Foresman, J. V. Ortiz, J. Cioslowski, 
 and D. J. Fox, Gaussian, Inc., Wallingford CT, 2013.
 
 ******************************************
 Gaussian 09:  EM64L-G09RevD.01 24-Apr-2013
                28-Nov-2019 
 ******************************************
 %mem=7Gb
 %nproc=4
 Will use up to    4 processors via shared memory.
 ----------------------------------------------------------------------
 #PBEPBE/gen scf=(maxcycle=500,conver=3) NMR=GIAO Scrf=(solvent=Dichlor
 omethane)
 ----------------------------------------------------------------------
 1/38=1/1;
 2/12=2,17=6,18=5,40=1/2;
 3/5=7,11=2,16=1,25=1,30=1,70=2201,72=9,74=1009/1,2,8,3;
 4//1;
 5/5=2,6=3,7=500,38=5,53=9/2;
 8/6=1,10=90,11=11/1;
 10/13=100,45=16/2;
 6/7=2,8=2,9=2,10=2,28=1/1;
 99/9=1/99;
 Leave Link    1 at Thu Nov 28 10:18:22 2019, MaxMem=   939524096 cpu:         0.2
 (Enter /scr/programas/g09/l101.exe)
 -------------
 estrutura 106
 -------------
 Symbolic Z-matrix:
 Charge =  0 Multiplicity = 1
 Pt                    0.12081   0.69038  -0.05337 
 P                     2.50867   0.46852   0.05144 
 C                     3.39375  -1.15198  -0.10941 
 C                     3.81126  -1.89718   1.00474 
 C                     3.67491  -1.64058  -1.39757 
 C                     4.50225  -3.10135   0.83391 
 H                     3.6075   -1.54512   2.01556 
 C                     4.37444  -2.83746  -1.5647 
 H                     3.35303  -1.08276  -2.27954 
 C                     4.79142  -3.57164  -0.44967 
 H                     4.81821  -3.66964   1.71253 
 H                     4.59105  -3.19772  -2.57307 
 H                     5.33886  -4.50911  -0.58057 
 C                     2.99781   1.08214   1.72232 
 C                     3.99691   2.04423   1.93154 
 C                     2.31512   0.55588   2.83562 
 C                     4.31894   2.45663   3.22874 
 H                     4.52397   2.49021   1.08815 
 C                     2.64174   0.96778   4.12954 
 H                     1.5245   -0.18403   2.6933 
 C                     3.64694   1.9206    4.33035 
 H                     5.09784   3.20615   3.37472 
 H                     2.10655   0.54389   4.98294 
 H                     3.89965   2.24849   5.34216 
 C                     3.3928    1.45779  -1.23102 
 C                     4.80044   1.465    -1.27054 
 C                     2.67941   2.13368  -2.23502 
 C                     5.47837   2.153    -2.27944 
 H                     5.37928   0.91754  -0.52279 
 C                     3.36257   2.81151  -3.25117 
 H                     1.58905   2.13265  -2.2229 
 C                     4.75861   2.82844  -3.27386 
 H                     6.57073   2.15327  -2.29365 
 H                     2.79248   3.32621  -4.02967 
 H                     5.29158   3.35687  -4.06854 
 Sn                   -0.40952  -1.86806  -0.2542 
 Cl                    0.55337   3.098     0.2784 
 P                    -2.23598   1.08581  -0.03225 
 C                    -2.79362   2.83867   0.15075 
 C                    -2.91734   3.64989  -0.98967 
 C                    -3.06617   3.38908   1.41389 
 C                    -3.31693   4.98313  -0.86988 
 H                    -2.70631   3.24415  -1.98079 
 C                    -3.46544   4.72475   1.52953 
 H                    -2.97287   2.78264   2.31611 
 C                    -3.59472   5.52359   0.38956 
 H                    -3.41611   5.59884  -1.76604 
 H                    -3.67946   5.13772   2.51983 
 H                    -3.91146   6.56526   0.48322 
 C                    -2.99412   0.59561  -1.64406 
 C                    -4.36892   0.38526  -1.85839 
 C                    -2.12565   0.54573  -2.75228 
 C                    -4.85331   0.09197  -3.13501 
 H                    -5.08027   0.44976  -1.03635 
 C                    -2.6142    0.27717  -4.03549 
 H                    -1.05892   0.73588  -2.60637 
 C                    -3.97826   0.04129  -4.22612 
 H                    -5.92369  -0.09177  -3.27496 
 H                    -1.91556   0.24822  -4.87641 
 H                    -4.36782  -0.17553  -5.22551 
 C                    -2.98452   0.23693   1.43375 
 C                    -4.27193  -0.32556   1.49584 
 C                    -2.18912   0.21469   2.59688 
 C                    -4.74234  -0.8949    2.68137 
 H                    -4.91927  -0.34927   0.62257 
 C                    -2.66574  -0.34265   3.78475 
 H                    -1.18083   0.63669   2.57458 
 C                    -3.94546  -0.90271   3.83145 
 H                    -5.74185  -1.3363    2.70148 
 H                    -2.03058  -0.34557   4.67558 
 H                    -4.31772  -1.3451    4.75733 
 Cl                    0.55604  -2.94135   1.73277 
 C                    -2.383    -2.82514  -0.43494 
 H                    -2.9391   -2.52568   0.4662 
 H                    -2.82807  -2.28934  -1.28799 
 Cl                    0.66983  -3.02167  -2.12308 
 C                    -2.45185  -4.3392   -0.65248 
 H                    -3.49226  -4.57757  -0.94623 
 H                    -1.82638  -4.63068  -1.51456 
 C                    -2.0893   -5.19597   0.56742 
 H                    -1.00982  -5.1101    0.77269 
 H                    -2.59443  -4.78024   1.45923 
 C                    -2.47716  -6.66817   0.41572 
 H                    -1.99163  -7.13609  -0.45811 
 H                    -2.18929  -7.25002   1.30652 
 H                    -3.567    -6.77887   0.28552 
 
 NAtoms=     86 NQM=       86 NQMF=       0 NMMI=      0 NMMIF=      0
                NMic=       0 NMicF=      0.
                    Isotopes and Nuclear Properties:
 (Nuclear quadrupole moments (NQMom) in fm**2, nuclear magnetic moments (NMagM)
  in nuclear magnetons)

  Atom         1           2           3           4           5           6           7           8           9          10
 IAtWgt=         195          31          12          12          12          12           1          12           1          12
 AtmWgt= 194.9648000  30.9737634  12.0000000  12.0000000  12.0000000  12.0000000   1.0078250  12.0000000   1.0078250  12.0000000
 NucSpn=           1           1           0           0           0           0           1           0           1           0
 AtZEff=   0.0000000   0.0000000   0.0000000   0.0000000   0.0000000   0.0000000   0.0000000   0.0000000   0.0000000   0.0000000
 NQMom=    0.0000000   0.0000000   0.0000000   0.0000000   0.0000000   0.0000000   0.0000000   0.0000000   0.0000000   0.0000000
 NMagM=    0.6095000   1.1316000   0.0000000   0.0000000   0.0000000   0.0000000   2.7928460   0.0000000   2.7928460   0.0000000
 AtZNuc=  78.0000000  15.0000000   6.0000000   6.0000000   6.0000000   6.0000000   1.0000000   6.0000000   1.0000000   6.0000000

  Atom        11          12          13          14          15          16          17          18          19          20
 IAtWgt=           1           1           1          12          12          12          12           1          12           1
 AtmWgt=   1.0078250   1.0078250   1.0078250  12.0000000  12.0000000  12.0000000  12.0000000   1.0078250  12.0000000   1.0078250
 NucSpn=           1           1           1           0           0           0           0           1           0           1
 AtZEff=   0.0000000   0.0000000   0.0000000   0.0000000   0.0000000   0.0000000   0.0000000   0.0000000   0.0000000   0.0000000
 NQMom=    0.0000000   0.0000000   0.0000000   0.0000000   0.0000000   0.0000000   0.0000000   0.0000000   0.0000000   0.0000000
 NMagM=    2.7928460   2.7928460   2.7928460   0.0000000   0.0000000   0.0000000   0.0000000   2.7928460   0.0000000   2.7928460
 AtZNuc=   1.0000000   1.0000000   1.0000000   6.0000000   6.0000000   6.0000000   6.0000000   1.0000000   6.0000000   1.0000000

  Atom        21          22          23          24          25          26          27          28          29          30
 IAtWgt=          12           1           1           1          12          12          12          12           1          12
 AtmWgt=  12.0000000   1.0078250   1.0078250   1.0078250  12.0000000  12.0000000  12.0000000  12.0000000   1.0078250  12.0000000
 NucSpn=           0           1           1           1           0           0           0           0           1           0
 AtZEff=   0.0000000   0.0000000   0.0000000   0.0000000   0.0000000   0.0000000   0.0000000   0.0000000   0.0000000   0.0000000
 NQMom=    0.0000000   0.0000000   0.0000000   0.0000000   0.0000000   0.0000000   0.0000000   0.0000000   0.0000000   0.0000000
 NMagM=    0.0000000   2.7928460   2.7928460   2.7928460   0.0000000   0.0000000   0.0000000   0.0000000   2.7928460   0.0000000
 AtZNuc=   6.0000000   1.0000000   1.0000000   1.0000000   6.0000000   6.0000000   6.0000000   6.0000000   1.0000000   6.0000000

  Atom        31          32          33          34          35          36          37          38          39          40
 IAtWgt=           1          12           1           1           1         118          35          31          12          12
 AtmWgt=   1.0078250  12.0000000   1.0078250   1.0078250   1.0078250 117.9018000  34.9688527  30.9737634  12.0000000  12.0000000
 NucSpn=           1           0           1           1           1           0           3           1           0           0
 AtZEff=   0.0000000   0.0000000   0.0000000   0.0000000   0.0000000   0.0000000   0.0000000   0.0000000   0.0000000   0.0000000
 NQMom=    0.0000000   0.0000000   0.0000000   0.0000000   0.0000000   0.0000000  -8.1650000   0.0000000   0.0000000   0.0000000
 NMagM=    2.7928460   0.0000000   2.7928460   2.7928460   2.7928460   0.0000000   0.8218740   1.1316000   0.0000000   0.0000000
 AtZNuc=   1.0000000   6.0000000   1.0000000   1.0000000   1.0000000  50.0000000  17.0000000  15.0000000   6.0000000   6.0000000

  Atom        41          42          43          44          45          46          47          48          49          50
 IAtWgt=          12          12           1          12           1          12           1           1           1          12
 AtmWgt=  12.0000000  12.0000000   1.0078250  12.0000000   1.0078250  12.0000000   1.0078250   1.0078250   1.0078250  12.0000000
 NucSpn=           0           0           1           0           1           0           1           1           1           0
 AtZEff=   0.0000000   0.0000000   0.0000000   0.0000000   0.0000000   0.0000000   0.0000000   0.0000000   0.0000000   0.0000000
 NQMom=    0.0000000   0.0000000   0.0000000   0.0000000   0.0000000   0.0000000   0.0000000   0.0000000   0.0000000   0.0000000
 NMagM=    0.0000000   0.0000000   2.7928460   0.0000000   2.7928460   0.0000000   2.7928460   2.7928460   2.7928460   0.0000000
 AtZNuc=   6.0000000   6.0000000   1.0000000   6.0000000   1.0000000   6.0000000   1.0000000   1.0000000   1.0000000   6.0000000

  Atom        51          52          53          54          55          56          57          58          59          60
 IAtWgt=          12          12          12           1          12           1          12           1           1           1
 AtmWgt=  12.0000000  12.0000000  12.0000000   1.0078250  12.0000000   1.0078250  12.0000000   1.0078250   1.0078250   1.0078250
 NucSpn=           0           0           0           1           0           1           0           1           1           1
 AtZEff=   0.0000000   0.0000000   0.0000000   0.0000000   0.0000000   0.0000000   0.0000000   0.0000000   0.0000000   0.0000000
 NQMom=    0.0000000   0.0000000   0.0000000   0.0000000   0.0000000   0.0000000   0.0000000   0.0000000   0.0000000   0.0000000
 NMagM=    0.0000000   0.0000000   0.0000000   2.7928460   0.0000000   2.7928460   0.0000000   2.7928460   2.7928460   2.7928460
 AtZNuc=   6.0000000   6.0000000   6.0000000   1.0000000   6.0000000   1.0000000   6.0000000   1.0000000   1.0000000   1.0000000

  Atom        61          62          63          64          65          66          67          68          69          70
 IAtWgt=          12          12          12          12           1          12           1          12           1           1
 AtmWgt=  12.0000000  12.0000000  12.0000000  12.0000000   1.0078250  12.0000000   1.0078250  12.0000000   1.0078250   1.0078250
 NucSpn=           0           0           0           0           1           0           1           0           1           1
 AtZEff=   0.0000000   0.0000000   0.0000000   0.0000000   0.0000000   0.0000000   0.0000000   0.0000000   0.0000000   0.0000000
 NQMom=    0.0000000   0.0000000   0.0000000   0.0000000   0.0000000   0.0000000   0.0000000   0.0000000   0.0000000   0.0000000
 NMagM=    0.0000000   0.0000000   0.0000000   0.0000000   2.7928460   0.0000000   2.7928460   0.0000000   2.7928460   2.7928460
 AtZNuc=   6.0000000   6.0000000   6.0000000   6.0000000   1.0000000   6.0000000   1.0000000   6.0000000   1.0000000   1.0000000

  Atom        71          72          73          74          75          76          77          78          79          80
 IAtWgt=           1          35          12           1           1          35          12           1           1          12
 AtmWgt=   1.0078250  34.9688527  12.0000000   1.0078250   1.0078250  34.9688527  12.0000000   1.0078250   1.0078250  12.0000000
 NucSpn=           1           3           0           1           1           3           0           1           1           0
 AtZEff=   0.0000000   0.0000000   0.0000000   0.0000000   0.0000000   0.0000000   0.0000000   0.0000000   0.0000000   0.0000000
 NQMom=    0.0000000  -8.1650000   0.0000000   0.0000000   0.0000000  -8.1650000   0.0000000   0.0000000   0.0000000   0.0000000
 NMagM=    2.7928460   0.8218740   0.0000000   2.7928460   2.7928460   0.8218740   0.0000000   2.7928460   2.7928460   0.0000000
 AtZNuc=   1.0000000  17.0000000   6.0000000   1.0000000   1.0000000  17.0000000   6.0000000   1.0000000   1.0000000   6.0000000

  Atom        81          82          83          84          85          86
 IAtWgt=           1           1          12           1           1           1
 AtmWgt=   1.0078250   1.0078250  12.0000000   1.0078250   1.0078250   1.0078250
 NucSpn=           1           1           0           1           1           1
 AtZEff=   0.0000000   0.0000000   0.0000000   0.0000000   0.0000000   0.0000000
 NQMom=    0.0000000   0.0000000   0.0000000   0.0000000   0.0000000   0.0000000
 NMagM=    2.7928460   2.7928460   0.0000000   2.7928460   2.7928460   2.7928460
 AtZNuc=   1.0000000   1.0000000   6.0000000   1.0000000   1.0000000   1.0000000
 Leave Link  101 at Thu Nov 28 10:18:22 2019, MaxMem=   939524096 cpu:         0.6
 (Enter /scr/programas/g09/l202.exe)
 Stoichiometry    C40H39Cl3P2PtSn
 Framework group  C1[X(C40H39Cl3P2PtSn)]
 Deg. of freedom   252
 Full point group                 C1      NOp   1
 Largest Abelian subgroup         C1      NOp   1
 Largest concise Abelian subgroup C1      NOp   1
                         Standard orientation:                         
 ---------------------------------------------------------------------
 Center     Atomic      Atomic             Coordinates (Angstroms)
 Number     Number       Type             X           Y           Z
 ---------------------------------------------------------------------
      1         78           0       -0.120810   -0.690380   -0.053373
      2         15           0       -2.508668   -0.468519    0.051437
      3          6           0       -3.393753    1.151976   -0.109412
      4          6           0       -3.811260    1.897176    1.004737
      5          6           0       -3.674905    1.640578   -1.397572
      6          6           0       -4.502254    3.101348    0.833910
      7          1           0       -3.607496    1.545123    2.015558
      8          6           0       -4.374444    2.837464   -1.564702
      9          1           0       -3.353034    1.082757   -2.279537
     10          6           0       -4.791422    3.571637   -0.449667
     11          1           0       -4.818209    3.669641    1.712532
     12          1           0       -4.591051    3.197720   -2.573072
     13          1           0       -5.338855    4.509113   -0.580573
     14          6           0       -2.997805   -1.082142    1.722319
     15          6           0       -3.996914   -2.044226    1.931535
     16          6           0       -2.315115   -0.555877    2.835619
     17          6           0       -4.318938   -2.456632    3.228740
     18          1           0       -4.523968   -2.490212    1.088154
     19          6           0       -2.641741   -0.967777    4.129544
     20          1           0       -1.524501    0.184028    2.693296
     21          6           0       -3.646943   -1.920603    4.330348
     22          1           0       -5.097836   -3.206146    3.374722
     23          1           0       -2.106554   -0.543891    4.982941
     24          1           0       -3.899645   -2.248486    5.342157
     25          6           0       -3.392804   -1.457786   -1.231019
     26          6           0       -4.800445   -1.464998   -1.270535
     27          6           0       -2.679405   -2.133676   -2.235022
     28          6           0       -5.478372   -2.153004   -2.279445
     29          1           0       -5.379277   -0.917537   -0.522785
     30          6           0       -3.362570   -2.811509   -3.251167
     31          1           0       -1.589053   -2.132654   -2.222896
     32          6           0       -4.758611   -2.828444   -3.273859
     33          1           0       -6.570735   -2.153273   -2.293646
     34          1           0       -2.792476   -3.326208   -4.029668
     35          1           0       -5.291581   -3.356872   -4.068540
     36         50           0        0.409515    1.868055   -0.254202
     37         17           0       -0.553366   -3.097998    0.278396
     38         15           0        2.235979   -1.085808   -0.032246
     39          6           0        2.793616   -2.838666    0.150753
     40          6           0        2.917335   -3.649889   -0.989671
     41          6           0        3.066173   -3.389082    1.413894
     42          6           0        3.316931   -4.983131   -0.869881
     43          1           0        2.706305   -3.244148   -1.980787
     44          6           0        3.465436   -4.724749    1.529533
     45          1           0        2.972871   -2.782636    2.316107
     46          6           0        3.594722   -5.523585    0.389561
     47          1           0        3.416108   -5.598845   -1.766035
     48          1           0        3.679459   -5.137722    2.519833
     49          1           0        3.911462   -6.565260    0.483215
     50          6           0        2.994120   -0.595608   -1.644063
     51          6           0        4.368916   -0.385263   -1.858387
     52          6           0        2.125649   -0.545728   -2.752282
     53          6           0        4.853305   -0.091973   -3.135011
     54          1           0        5.080266   -0.449757   -1.036354
     55          6           0        2.614200   -0.277169   -4.035493
     56          1           0        1.058916   -0.735876   -2.606369
     57          6           0        3.978260   -0.041293   -4.226124
     58          1           0        5.923687    0.091771   -3.274959
     59          1           0        1.915556   -0.248222   -4.876406
     60          1           0        4.367815    0.175529   -5.225508
     61          6           0        2.984515   -0.236932    1.433747
     62          6           0        4.271931    0.325564    1.495838
     63          6           0        2.189121   -0.214694    2.596875
     64          6           0        4.742337    0.894904    2.681366
     65          1           0        4.919271    0.349269    0.622568
     66          6           0        2.665744    0.342645    3.784749
     67          1           0        1.180828   -0.636685    2.574584
     68          6           0        3.945458    0.902708    3.831450
     69          1           0        5.741847    1.336301    2.701484
     70          1           0        2.030580    0.345568    4.675584
     71          1           0        4.317724    1.345095    4.757328
     72         17           0       -0.556037    2.941353    1.732773
     73          6           0        2.382998    2.825141   -0.434942
     74          1           0        2.939095    2.525677    0.466201
     75          1           0        2.828072    2.289336   -1.287993
     76         17           0       -0.669826    3.021674   -2.123075
     77          6           0        2.451846    4.339199   -0.652483
     78          1           0        3.492263    4.577566   -0.946225
     79          1           0        1.826382    4.630679   -1.514560
     80          6           0        2.089301    5.195965    0.567424
     81          1           0        1.009817    5.110104    0.772693
     82          1           0        2.594433    4.780242    1.459234
     83          6           0        2.477162    6.668170    0.415722
     84          1           0        1.991627    7.136086   -0.458109
     85          1           0        2.189294    7.250016    1.306524
     86          1           0        3.566998    6.778866    0.285521
 ---------------------------------------------------------------------
 Rotational constants (GHZ):      0.0582970      0.0490027      0.0397782
 Leave Link  202 at Thu Nov 28 10:18:22 2019, MaxMem=   939524096 cpu:         0.0
 (Enter /scr/programas/g09/l301.exe)
 General basis read from cards:  (5D, 7F)
 Centers:       7      9     11     12     13     18     20     22     23     24
 Centers:      29     31     33     34     35     43     45     47     48     49
 Centers:      54     56     58     59     60     65     67     69     70     71
 Centers:      74     75     78     79     81     82     84     85     86
 S 5 1.00
     Exponent=  2.8295215633D+02 Coefficients=  4.3000000000D-04
     Exponent=  8.7062201949D+01 Coefficients=  5.1000000000D-04
     Exponent=  2.6788369830D+01 Coefficients=  6.1600000000D-03
     Exponent=  8.2425753324D+00 Coefficients=  1.3030000000D-02
     Exponent=  2.5361770254D+00 Coefficients=  9.9490000000D-02
 S 1 1.00
     Exponent=  7.8036216165D-01 Coefficients=  1.0000000000D+00
 S 1 1.00
     Exponent=  2.4011143435D-01 Coefficients=  1.0000000000D+00
 P 1 1.00
     Exponent=  8.8150000000D-01 Coefficients=  1.0000000000D+00
 P 1 1.00
     Exponent=  1.7989200000D-01 Coefficients=  1.0000000000D+00
 ****
 Centers:       3      4      5      6      8     10     14     15     16     17
 Centers:      19     21     25     26     27     28     30     32     39     40
 Centers:      41     42     44     46     50     51     52     53     55     57
 Centers:      61     62     63     64     66     68     73     77     80     83
 S 6 1.00
     Exponent=  8.8461235339D+03 Coefficients=  5.3000000000D-04
     Exponent=  2.9487078446D+03 Coefficients=  7.7000000000D-04
     Exponent=  9.8290261488D+02 Coefficients=  4.0500000000D-03
     Exponent=  3.2763420496D+02 Coefficients=  1.4030000000D-02
     Exponent=  1.0921140165D+02 Coefficients=  5.3450000000D-02
     Exponent=  3.6403800551D+01 Coefficients=  1.7027000000D-01
 S 1 1.00
     Exponent=  1.2134600184D+01 Coefficients=  1.0000000000D+00
 S 1 1.00
     Exponent=  4.0448667279D+00 Coefficients=  1.0000000000D+00
 S 1 1.00
     Exponent=  1.3482889093D+00 Coefficients=  1.0000000000D+00
 S 1 1.00
     Exponent=  4.4942963643D-01 Coefficients=  1.0000000000D+00
 S 1 1.00
     Exponent=  1.4980987881D-01 Coefficients=  1.0000000000D+00
 P 4 1.00
     Exponent=  3.7294093393D+01 Coefficients=  3.9600000000D-03
     Exponent=  1.1475105659D+01 Coefficients=  1.8890000000D-02
     Exponent=  3.5308017414D+00 Coefficients=  9.4610000000D-02
     Exponent=  1.0864005358D+00 Coefficients=  3.1889000000D-01
 P 1 1.00
     Exponent=  3.3427708794D-01 Coefficients=  1.0000000000D+00
 P 1 1.00
     Exponent=  1.0285448860D-01 Coefficients=  1.0000000000D+00
 D 1 1.00
     Exponent=  4.7750000000D-01 Coefficients=  1.0000000000D+00
 D 1 1.00
     Exponent=  1.1998000000D-01 Coefficients=  1.0000000000D+00
 ****
 Centers:       2     38
 S 7 1.00
     Exponent=  5.9538004301D+04 Coefficients=  9.5000000000D-04
     Exponent=  2.1650183382D+04 Coefficients=  6.1000000000D-04
     Exponent=  7.8727939572D+03 Coefficients=  3.7500000000D-03
     Exponent=  2.8628341663D+03 Coefficients=  9.6300000000D-03
     Exponent=  1.0410306059D+03 Coefficients=  3.2430000000D-02
     Exponent=  3.7855658397D+02 Coefficients=  9.9500000000D-02
     Exponent=  1.3765693962D+02 Coefficients=  2.6570000000D-01
 S 1 1.00
     Exponent=  5.0057068954D+01 Coefficients=  1.0000000000D+00
 S 1 1.00
     Exponent=  1.8202570529D+01 Coefficients=  1.0000000000D+00
 S 1 1.00
     Exponent=  6.6191165560D+00 Coefficients=  1.0000000000D+00
 S 1 1.00
     Exponent=  2.4069514749D+00 Coefficients=  1.0000000000D+00
 S 1 1.00
     Exponent=  8.7525508178D-01 Coefficients=  1.0000000000D+00
 S 1 1.00
     Exponent=  3.1827457519D-01 Coefficients=  1.0000000000D+00
 S 1 1.00
     Exponent=  1.1573620916D-01 Coefficients=  1.0000000000D+00
 S 1 1.00
     Exponent=  4.2085894240D-02 Coefficients=  1.0000000000D+00
 P 5 1.00
     Exponent=  4.8799672315D+02 Coefficients=  2.1600000000D-03
     Exponent=  1.6266557438D+02 Coefficients=  9.7900000000D-03
     Exponent=  5.4221858128D+01 Coefficients=  5.4850000000D-02
     Exponent=  1.8073952709D+01 Coefficients=  2.1770000000D-01
     Exponent=  6.0246509031D+00 Coefficients=  4.8978000000D-01
 P 1 1.00
     Exponent=  2.0082169677D+00 Coefficients=  1.0000000000D+00
 P 1 1.00
     Exponent=  6.6940565590D-01 Coefficients=  1.0000000000D+00
 P 1 1.00
     Exponent=  2.2313521863D-01 Coefficients=  1.0000000000D+00
 P 1 1.00
     Exponent=  7.4378406211D-02 Coefficients=  1.0000000000D+00
 P 1 1.00
     Exponent=  2.4792802070D-02 Coefficients=  1.0000000000D+00
 D 1 1.00
     Exponent=  3.5395000000D-01 Coefficients=  1.0000000000D+00
 D 1 1.00
     Exponent=  8.9098000000D-02 Coefficients=  1.0000000000D+00
 ****
 Centers:      37     72     76
 S 7 1.00
     Exponent=  7.7142817164D+04 Coefficients=  1.0600000000D-03
     Exponent=  2.8051933514D+04 Coefficients=  6.4000000000D-04
     Exponent=  1.0200703096D+04 Coefficients=  3.9600000000D-03
     Exponent=  3.7093465804D+03 Coefficients=  9.8300000000D-03
     Exponent=  1.3488533020D+03 Coefficients=  3.2690000000D-02
     Exponent=  4.9049210981D+02 Coefficients=  9.9520000000D-02
     Exponent=  1.7836076720D+02 Coefficients=  2.6555000000D-01
 S 1 1.00
     Exponent=  6.4858460801D+01 Coefficients=  1.0000000000D+00
 S 1 1.00
     Exponent=  2.3584894837D+01 Coefficients=  1.0000000000D+00
 S 1 1.00
     Exponent=  8.5763253951D+00 Coefficients=  1.0000000000D+00
 S 1 1.00
     Exponent=  3.1186637801D+00 Coefficients=  1.0000000000D+00
 S 1 1.00
     Exponent=  1.1340595564D+00 Coefficients=  1.0000000000D+00
 S 1 1.00
     Exponent=  4.1238529323D-01 Coefficients=  1.0000000000D+00
 S 1 1.00
     Exponent=  1.4995828845D-01 Coefficients=  1.0000000000D+00
 S 1 1.00
     Exponent=  5.4530286708D-02 Coefficients=  1.0000000000D+00
 P 5 1.00
     Exponent=  6.9498536057D+02 Coefficients=  2.0000000000D-03
     Exponent=  2.3166178686D+02 Coefficients=  8.9500000000D-03
     Exponent=  7.7220595619D+01 Coefficients=  5.1130000000D-02
     Exponent=  2.5740198540D+01 Coefficients=  2.1011000000D-01
     Exponent=  8.5800661799D+00 Coefficients=  4.9738000000D-01
 P 1 1.00
     Exponent=  2.8600220600D+00 Coefficients=  1.0000000000D+00
 P 1 1.00
     Exponent=  9.5334068665D-01 Coefficients=  1.0000000000D+00
 P 1 1.00
     Exponent=  3.1778022888D-01 Coefficients=  1.0000000000D+00
 P 1 1.00
     Exponent=  1.0592674296D-01 Coefficients=  1.0000000000D+00
 P 1 1.00
     Exponent=  3.5308914320D-02 Coefficients=  1.0000000000D+00
 D 1 1.00
     Exponent=  5.5696000000D-01 Coefficients=  1.0000000000D+00
 D 1 1.00
     Exponent=  1.5619100000D-01 Coefficients=  1.0000000000D+00
 ****
 Centers:      36
 S 8 1.00
     Exponent=  7.5448214551D+05 Coefficients=  4.4300000000D-03
     Exponent=  3.3532539800D+05 Coefficients=  1.9800000000D-03
     Exponent=  1.4903351022D+05 Coefficients=  9.0500000000D-03
     Exponent=  6.6237115655D+04 Coefficients=  4.8700000000D-03
     Exponent=  2.9438718069D+04 Coefficients=  2.0770000000D-02
     Exponent=  1.3083874697D+04 Coefficients=  3.2900000000D-02
     Exponent=  5.8150554210D+03 Coefficients=  7.7010000000D-02
     Exponent=  2.5844690760D+03 Coefficients=  1.5160000000D-01
 S 1 1.00
     Exponent=  1.1486529227D+03 Coefficients=  1.0000000000D+00
 S 1 1.00
     Exponent=  5.1051241008D+02 Coefficients=  1.0000000000D+00
 S 1 1.00
     Exponent=  2.2689440448D+02 Coefficients=  1.0000000000D+00
 S 1 1.00
     Exponent=  1.0084195755D+02 Coefficients=  1.0000000000D+00
 S 1 1.00
     Exponent=  4.4818647798D+01 Coefficients=  1.0000000000D+00
 S 1 1.00
     Exponent=  1.9919399021D+01 Coefficients=  1.0000000000D+00
 S 1 1.00
     Exponent=  8.8530662317D+00 Coefficients=  1.0000000000D+00
 S 1 1.00
     Exponent=  3.9346961030D+00 Coefficients=  1.0000000000D+00
 S 1 1.00
     Exponent=  1.7487538235D+00 Coefficients=  1.0000000000D+00
 S 1 1.00
     Exponent=  7.7722392158D-01 Coefficients=  1.0000000000D+00
 S 1 1.00
     Exponent=  3.4543285403D-01 Coefficients=  1.0000000000D+00
 S 1 1.00
     Exponent=  1.5352571290D-01 Coefficients=  1.0000000000D+00
 S 1 1.00
     Exponent=  6.8233650180D-02 Coefficients=  1.0000000000D+00
 S 1 1.00
     Exponent=  1.3478251887D-02 Coefficients=  1.0000000000D+00
 P 5 1.00
     Exponent=  1.0090658304D+04 Coefficients=  2.7500000000D-03
     Exponent=  4.0362633217D+03 Coefficients=  4.1800000000D-03
     Exponent=  1.6145053287D+03 Coefficients=  2.0890000000D-02
     Exponent=  6.4580213147D+02 Coefficients=  7.1370000000D-02
     Exponent=  2.5832085259D+02 Coefficients=  2.2613000000D-01
 P 1 1.00
     Exponent=  1.0332834104D+02 Coefficients=  1.0000000000D+00
 P 1 1.00
     Exponent=  4.1331336414D+01 Coefficients=  1.0000000000D+00
 P 1 1.00
     Exponent=  1.6532534566D+01 Coefficients=  1.0000000000D+00
 P 1 1.00
     Exponent=  6.6130138263D+00 Coefficients=  1.0000000000D+00
 P 1 1.00
     Exponent=  2.6452055305D+00 Coefficients=  1.0000000000D+00
 P 1 1.00
     Exponent=  1.0580822122D+00 Coefficients=  1.0000000000D+00
 P 1 1.00
     Exponent=  4.2323288488D-01 Coefficients=  1.0000000000D+00
 P 1 1.00
     Exponent=  1.6929315395D-01 Coefficients=  1.0000000000D+00
 P 1 1.00
     Exponent=  6.7717261581D-02 Coefficients=  1.0000000000D+00
 P 1 1.00
     Exponent=  2.7086904632D-02 Coefficients=  1.0000000000D+00
 P 1 1.00
     Exponent=  1.0834761853D-02 Coefficients=  1.0000000000D+00
 D 4 1.00
     Exponent=  5.5430250651D+02 Coefficients=  4.3700000000D-03
     Exponent=  2.0156454782D+02 Coefficients=  2.5110000000D-02
     Exponent=  7.3296199207D+01 Coefficients=  1.3316000000D-01
     Exponent=  2.6653163348D+01 Coefficients=  3.8900000000D-01
 D 1 1.00
     Exponent=  9.6920593993D+00 Coefficients=  1.0000000000D+00
 D 1 1.00
     Exponent=  3.5243852361D+00 Coefficients=  1.0000000000D+00
 D 1 1.00
     Exponent=  1.2815946313D+00 Coefficients=  1.0000000000D+00
 D 1 1.00
     Exponent=  4.6603441139D-01 Coefficients=  1.0000000000D+00
 D 1 1.00
     Exponent=  1.6946705869D-01 Coefficients=  1.0000000000D+00
 F 1 1.00
     Exponent=  1.3140000000D+00 Coefficients=  1.0000000000D+00
 F 1 1.00
     Exponent=  1.9993000000D-01 Coefficients=  1.0000000000D+00
 ****
 Centers:       1
 S 9 1.00
     Exponent=  2.1644816090D+06 Coefficients=  1.2320000000D-02
     Exponent=  1.0822408045D+06 Coefficients=  1.2970000000D-02
     Exponent=  5.4112040224D+05 Coefficients=  2.6370000000D-02
     Exponent=  2.7056020112D+05 Coefficients=  9.0400000000D-03
     Exponent=  1.3528010056D+05 Coefficients=  3.4980000000D-02
     Exponent=  6.7640050280D+04 Coefficients=  1.2220000000D-02
     Exponent=  3.3820025140D+04 Coefficients=  6.0520000000D-02
     Exponent=  1.6910012570D+04 Coefficients=  6.4930000000D-02
     Exponent=  8.4550062850D+03 Coefficients=  1.3819000000D-01
 S 1 1.00
     Exponent=  4.2275031425D+03 Coefficients=  1.0000000000D+00
 S 1 1.00
     Exponent=  2.1137515713D+03 Coefficients=  1.0000000000D+00
 S 1 1.00
     Exponent=  1.0568757856D+03 Coefficients=  1.0000000000D+00
 S 1 1.00
     Exponent=  5.2843789281D+02 Coefficients=  1.0000000000D+00
 S 1 1.00
     Exponent=  2.6421894641D+02 Coefficients=  1.0000000000D+00
 S 1 1.00
     Exponent=  1.3210947320D+02 Coefficients=  1.0000000000D+00
 S 1 1.00
     Exponent=  6.6054736602D+01 Coefficients=  1.0000000000D+00
 S 1 1.00
     Exponent=  3.3027368301D+01 Coefficients=  1.0000000000D+00
 S 1 1.00
     Exponent=  1.6513684150D+01 Coefficients=  1.0000000000D+00
 S 1 1.00
     Exponent=  8.2568420752D+00 Coefficients=  1.0000000000D+00
 S 1 1.00
     Exponent=  4.1284210376D+00 Coefficients=  1.0000000000D+00
 S 1 1.00
     Exponent=  2.0642105188D+00 Coefficients=  1.0000000000D+00
 S 1 1.00
     Exponent=  1.0321052594D+00 Coefficients=  1.0000000000D+00
 S 1 1.00
     Exponent=  5.1605262970D-01 Coefficients=  1.0000000000D+00
 S 1 1.00
     Exponent=  2.5802631485D-01 Coefficients=  1.0000000000D+00
 S 1 1.00
     Exponent=  1.2901315743D-01 Coefficients=  1.0000000000D+00
 S 1 1.00
     Exponent=  6.4506578713D-02 Coefficients=  1.0000000000D+00
 P 7 1.00
     Exponent=  3.2357915258D+04 Coefficients=  5.0200000000D-03
     Exponent=  1.4381295670D+04 Coefficients=  2.0200000000D-03
     Exponent=  6.3916869645D+03 Coefficients=  1.8070000000D-02
     Exponent=  2.8407497620D+03 Coefficients=  3.6620000000D-02
     Exponent=  1.2625554498D+03 Coefficients=  1.1172000000D-01
     Exponent=  5.6113575545D+02 Coefficients=  2.5586000000D-01
     Exponent=  2.4939366909D+02 Coefficients=  4.2608000000D-01
 P 1 1.00
     Exponent=  1.1084163071D+02 Coefficients=  1.0000000000D+00
 P 1 1.00
     Exponent=  4.9262946981D+01 Coefficients=  1.0000000000D+00
 P 1 1.00
     Exponent=  2.1894643103D+01 Coefficients=  1.0000000000D+00
 P 1 1.00
     Exponent=  9.7309524900D+00 Coefficients=  1.0000000000D+00
 P 1 1.00
     Exponent=  4.3248677733D+00 Coefficients=  1.0000000000D+00
 P 1 1.00
     Exponent=  1.9221634548D+00 Coefficients=  1.0000000000D+00
 P 1 1.00
     Exponent=  8.5429486881D-01 Coefficients=  1.0000000000D+00
 P 1 1.00
     Exponent=  3.7968660836D-01 Coefficients=  1.0000000000D+00
 P 1 1.00
     Exponent=  1.6874960372D-01 Coefficients=  1.0000000000D+00
 P 1 1.00
     Exponent=  7.4999823874D-02 Coefficients=  1.0000000000D+00
 P 1 1.00
     Exponent=  3.3333255055D-02 Coefficients=  1.0000000000D+00
 D 5 1.00
     Exponent=  1.9119003508D+03 Coefficients=  4.3300000000D-03
     Exponent=  7.6476014031D+02 Coefficients=  1.7780000000D-02
     Exponent=  3.0590405613D+02 Coefficients=  8.9710000000D-02
     Exponent=  1.2236162245D+02 Coefficients=  3.1123000000D-01
     Exponent=  4.8944648980D+01 Coefficients=  5.3206000000D-01
 D 1 1.00
     Exponent=  1.9577859592D+01 Coefficients=  1.0000000000D+00
 D 1 1.00
     Exponent=  7.8311438368D+00 Coefficients=  1.0000000000D+00
 D 1 1.00
     Exponent=  3.1324575347D+00 Coefficients=  1.0000000000D+00
 D 1 1.00
     Exponent=  1.2529830139D+00 Coefficients=  1.0000000000D+00
 D 1 1.00
     Exponent=  5.0119320556D-01 Coefficients=  1.0000000000D+00
 D 1 1.00
     Exponent=  2.0047728222D-01 Coefficients=  1.0000000000D+00
 D 1 1.00
     Exponent=  8.0190912889D-02 Coefficients=  1.0000000000D+00
 D 1 1.00
     Exponent=  3.2076365156D-02 Coefficients=  1.0000000000D+00
 F 4 1.00
     Exponent=  8.2289680979D+01 Coefficients=  6.1870000000D-02
     Exponent=  2.9923520356D+01 Coefficients=  2.4823000000D-01
     Exponent=  1.0881280130D+01 Coefficients=  4.9956000000D-01
     Exponent=  3.9568291380D+00 Coefficients=  4.0380000000D-01
 F 1 1.00
     Exponent=  1.4388469593D+00 Coefficients=  1.0000000000D+00
 F 1 1.00
     Exponent=  5.2321707610D-01 Coefficients=  1.0000000000D+00
 G 1 1.00
     Exponent=  2.6700000000D+00 Coefficients=  1.0000000000D+00
 G 1 1.00
     Exponent=  9.0960000000D-01 Coefficients=  1.0000000000D+00
 ****
 Ernie: Thresh=  0.10000D-02 Tol=  0.10000D-05 Strict=F.
 There are  1901 symmetry adapted cartesian basis functions of A   symmetry.
 There are  1769 symmetry adapted basis functions of A   symmetry.
  1769 basis functions,  2824 primitive gaussians,  1901 cartesian basis functions
   244 alpha electrons      244 beta electrons
       nuclear repulsion energy     12955.4791053643 Hartrees.
 IExCor= 1009 DFT=T Ex=PBE Corr=PBE ExCW=0 ScaHFX=  0.000000
 ScaDFX=  1.000000  1.000000  1.000000  1.000000 ScalE2=  1.000000  1.000000
 IRadAn=      0 IRanWt=     -1 IRanGd=            0 ICorTp=0 IEmpDi=  4
 NAtoms=   86 NActive=   86 NUniq=   86 SFac= 1.00D+00 NAtFMM=   60 NAOKFM=T Big=T
 Integral buffers will be    131072 words long.
 Raffenetti 2 integral format.
 Two-electron integral symmetry is turned on.
 ------------------------------------------------------------------------------
 Polarizable Continuum Model (PCM)
 =================================
 Model                : PCM (using non-symmetric T matrix).
 Atomic radii         : UFF (Universal Force Field).
 Polarization charges : Total charges.
 Charge compensation  : None.
 Solution method      : On-the-fly selection.
 Cavity type          : Scaled VdW (van der Waals Surface) (Alpha=1.100).
 Cavity algorithm     : GePol (No added spheres)
                        Default sphere list used, NSphG=   86.
                        Lebedev-Laikov grids with approx.  5.0 points / Ang**2.
                        Smoothing algorithm: Karplus/York (Gamma=1.0000).
                        Polarization charges: spherical gaussians, with
                                              point-specific exponents (IZeta= 3).
                        Self-potential: point-specific (ISelfS= 7).
                        Self-field    : sphere-specific E.n sum rule (ISelfD= 2).
 Solvent              : Dichloromethane, Eps=   8.930000 Eps(inf)=   2.028346
 ------------------------------------------------------------------------------
 GePol: Number of generator spheres                  =      86
 GePol: Total number of spheres                      =      86
 GePol: Number of exposed spheres                    =      86 (100.00%)
 GePol: Number of points                             =    6303
 GePol: Average weight of points                     =       0.13
 GePol: Minimum weight of points                     =   0.15D-10
 GePol: Maximum weight of points                     =    0.21838
 GePol: Number of points with low weight             =     498
 GePol: Fraction of low-weight points (<1% of avg)   =       7.90%
 GePol: Cavity surface area                          =    813.736 Ang**2
 GePol: Cavity volume                                =    993.575 Ang**3
 Leave Link  301 at Thu Nov 28 10:18:23 2019, MaxMem=   939524096 cpu:         0.9
 (Enter /scr/programas/g09/l302.exe)
 NPDir=0 NMtPBC=     1 NCelOv=     1 NCel=       1 NClECP=     1 NCelD=      1
         NCelK=      1 NCelE2=     1 NClLst=     1 CellRange=     0.0.
 One-electron integrals computed using PRISM.
 NBasis=  1769 RedAO= T EigKep=  1.44D-06  NBF=  1769
 NBsUse=  1769 1.00D-06 EigRej= -1.00D+00 NBFU=  1769
 Precomputing XC quadrature grid using
 IXCGrd= 4 IRadAn=           0 IRanWt=          -1 IRanGd=           0 AccXCQ= 0.00D+00.
 Defaulting to unpruned grid for atomic number  78.
 Defaulting to unpruned grid for atomic number  50.
 Generated NRdTot=       0 NPtTot=           0 NUsed=           0 NTot=          32
 NSgBfM=  1624  1631  1632  1635  1637 MxSgAt=    86 MxSgA2=    86.
 Leave Link  302 at Thu Nov 28 10:18:43 2019, MaxMem=   939524096 cpu:        79.4
 (Enter /scr/programas/g09/l308.exe)
 Leave Link  308 at Thu Nov 28 10:18:45 2019, MaxMem=   939524096 cpu:         5.6
 (Enter /scr/programas/g09/l303.exe)
 DipDrv:  MaxL=1.
 Leave Link  303 at Thu Nov 28 10:18:46 2019, MaxMem=   939524096 cpu:         3.3
 (Enter /scr/programas/g09/l401.exe)
 ExpMin= 1.08D-02 ExpMax= 2.16D+06 ExpMxC= 2.16D+06 IAcc=4 IRadAn=    199590 AccDes= 0.00D+00
 Harris functional with IExCor= 1009 and IRadAn=  199590 diagonalized for initial guess.
 HarFok:  IExCor= 1009 AccDes= 0.00D+00 IRadAn=    199590 IDoV= 1 UseB2=F ITyADJ=14
 ICtDFT=  3500011 ScaDFX=  1.000000  1.000000  1.000000  1.000000
 FoFCou: FMM=F IPFlag=           0 FMFlag=      100000 FMFlg1=        2001
         NFxFlg=           0 DoJE=T BraDBF=F KetDBF=T FulRan=T
         wScrn=  0.000000 ICntrl=     500 IOpCl=  0 I1Cent=   200000004 NGrid=           0
         NMat0=    1 NMatS0=      1 NMatT0=    0 NMatD0=    1 NMtDS0=    0 NMtDT0=    0
 Petite list used in FoFCou.
 Harris En= -26714.3526254834    
 JPrj=0 DoOrth=F DoCkMO=F.
 Leave Link  401 at Thu Nov 28 10:30:25 2019, MaxMem=   939524096 cpu:      2633.2
 (Enter /scr/programas/g09/l502.exe)
 Closed shell SCF:
 Using DIIS extrapolation, IDIIS=  1040.
 Integral symmetry usage will be decided dynamically.
 IVT=    11120981 IEndB=    11120981 NGot=   939524096 MDV=   932269818
 LenX=   932269818 LenY=   928654116
 Requested convergence on RMS density matrix=1.00D-03 within 500 cycles.
 Requested convergence on MAX density matrix=1.00D-01.
 Requested convergence on             energy=1.00D-01.
 No special actions if energy rises.
 Fock matrices will be formed incrementally for  20 cycles.

 Cycle   1  Pass 1  IDiag  1:
 FoFJK:  IHMeth= 1 ICntrl=     500 DoSepK=F KAlg= 0 I1Cent=   0 FoldK=F
 IRaf= 630000000 NMat=   1 IRICut=       1 DoRegI=T DoRafI=F ISym2E= 0.
 FoFCou: FMM=T IPFlag=           0 FMFlag=      100000 FMFlg1=        2001
         NFxFlg=           0 DoJE=T BraDBF=F KetDBF=F FulRan=T
         wScrn=  0.000000 ICntrl=     500 IOpCl=  0 I1Cent=           0 NGrid=           0
         NMat0=    1 NMatS0=      1 NMatT0=    0 NMatD0=    1 NMtDS0=    0 NMtDT0=    0
 Symmetry not used in FoFCou.
 FMM levels:  10  Number of levels for PrismC:   9
 Defaulting to unpruned grid for atomic number  78.
 Defaulting to unpruned grid for atomic number  78.
 Defaulting to unpruned grid for atomic number  78.
 Defaulting to unpruned grid for atomic number  78.
 Inv3:  Mode=1 IEnd=   119183427.
 Iteration    1 A*A^-1 deviation from unit magnitude is 1.40D-14 for   2630.
 Iteration    1 A*A^-1 deviation from orthogonality  is 8.94D-15 for   3947   3817.
 Iteration    1 A^-1*A deviation from unit magnitude is 1.22D-14 for   2630.
 Iteration    1 A^-1*A deviation from orthogonality  is 1.86D-12 for   5228   5199.
 E= -26693.9802946792    
 DIIS: error= 2.37D-01 at cycle   1 NSaved=   1.
 NSaved= 1 IEnMin= 1 EnMin= -26693.9802946792     IErMin= 1 ErrMin= 2.37D-01
 ErrMax= 2.37D-01  0.00D+00 EMaxC= 1.00D-01 BMatC= 3.35D+02 BMatP= 3.35D+02
 IDIUse=3 WtCom= 0.00D+00 WtEn= 1.00D+00
 Coeff-Com:  0.100D+01
 Coeff-En:   0.100D+01
 Coeff:      0.100D+01
 Gap=     0.730 Goal=   None    Shift=    0.000
 GapD=    0.730 DampG=2.000 DampE=0.125 DampFc=0.2500 IDamp=-1.
 Damping current iteration by 2.50D-01
 RMSDP=1.65D-02 MaxDP=5.05D+00              OVMax= 7.35D-01

 Cycle   2  Pass 1  IDiag  1:
 RMSU=  4.04D-03    CP:  1.07D+00
 E= -26695.6910187965     Delta-E=       -1.710724117256 Rises=F Damp=T
 DIIS: error= 1.65D-01 at cycle   2 NSaved=   2.
 NSaved= 2 IEnMin= 2 EnMin= -26695.6910187965     IErMin= 2 ErrMin= 1.65D-01
 ErrMax= 1.65D-01  0.00D+00 EMaxC= 1.00D-01 BMatC= 1.61D+02 BMatP= 3.35D+02
 IDIUse=3 WtCom= 0.00D+00 WtEn= 1.00D+00
 Coeff-Com: -0.195D+01 0.295D+01
 Coeff-En:   0.137D+00 0.863D+00
 Coeff:      0.137D+00 0.863D+00
 Gap=    -0.011 Goal=   None    Shift=    0.000
 RMSDP=4.31D-03 MaxDP=4.84D-01 DE=-1.71D+00 OVMax= 8.09D-01

 Cycle   3  Pass 1  IDiag  1:
 RMSU=  3.53D-03    CP:  9.28D-01  5.62D-01
 E= -26697.8030752525     Delta-E=       -2.112056456055 Rises=F Damp=F
 DIIS: error= 6.17D-02 at cycle   3 NSaved=   3.
 NSaved= 3 IEnMin= 3 EnMin= -26697.8030752525     IErMin= 3 ErrMin= 6.17D-02
 ErrMax= 6.17D-02  0.00D+00 EMaxC= 1.00D-01 BMatC= 1.34D+01 BMatP= 1.61D+02
 IDIUse=3 WtCom= 3.83D-01 WtEn= 6.17D-01
 EnCoef did   100 forward-backward iterations
 Coeff-Com:  0.864D+00-0.102D+01 0.115D+01
 Coeff-En:   0.269D+00 0.421D-02 0.727D+00
 Coeff:      0.497D+00-0.388D+00 0.891D+00
 Gap=     0.105 Goal=   None    Shift=    0.000
 RMSDP=1.01D-02 MaxDP=1.28D+00 DE=-2.11D+00 OVMax= 7.97D-01

 Cycle   4  Pass 1  IDiag  1:
 RMSU=  8.07D-03    CP:  1.24D+00  1.16D+00 -1.81D-01
 E= -26690.1481892470     Delta-E=        7.654886005548 Rises=F Damp=F
 DIIS: error= 4.97D-02 at cycle   4 NSaved=   4.
 NSaved= 4 IEnMin= 3 EnMin= -26697.8030752525     IErMin= 4 ErrMin= 4.97D-02
 ErrMax= 4.97D-02  0.00D+00 EMaxC= 1.00D-01 BMatC= 1.03D+01 BMatP= 1.34D+01
 IDIUse=3 WtCom= 5.03D-01 WtEn= 4.97D-01
 EnCoef did     8 forward-backward iterations
 Coeff-Com:  0.501D+00-0.605D+00 0.718D+00 0.385D+00
 Coeff-En:   0.189D+00 0.000D+00 0.690D+00 0.121D+00
 Coeff:      0.346D+00-0.304D+00 0.704D+00 0.254D+00
 Gap=    -0.021 Goal=   None    Shift=    0.000
 RMSDP=9.71D-03 MaxDP=1.50D+00 DE= 7.65D+00 OVMax= 6.14D-01

 Cycle   5  Pass 1  IDiag  1:
 RMSU=  1.86D-03    CP:  9.28D-01  3.80D-01  5.09D-01  2.92D-02
 E= -26699.3521608933     Delta-E=       -9.203971646290 Rises=F Damp=F
 DIIS: error= 1.61D-02 at cycle   5 NSaved=   5.
 NSaved= 5 IEnMin= 5 EnMin= -26699.3521608933     IErMin= 5 ErrMin= 1.61D-02
 ErrMax= 1.61D-02  0.00D+00 EMaxC= 1.00D-01 BMatC= 9.12D-01 BMatP= 1.03D+01
 IDIUse=3 WtCom= 8.39D-01 WtEn= 1.61D-01
 EnCoef did     2 forward-backward iterations
 Coeff-Com:  0.806D-02 0.131D-01 0.225D+00 0.129D+00 0.625D+00
 Coeff-En:   0.000D+00 0.000D+00 0.136D+00 0.418D-01 0.823D+00
 Coeff:      0.676D-02 0.110D-01 0.211D+00 0.115D+00 0.657D+00
 Gap=     0.180 Goal=   None    Shift=    0.000
 RMSDP=2.83D-03 MaxDP=3.51D-01 DE=-9.20D+00 OVMax= 2.75D-01

 Cycle   6  Pass 1  IDiag  1:
 RMSU=  1.63D-03    CP:  9.73D-01  4.13D-01  5.31D-01  1.20D-01 -1.46D-01
 E= -26699.0578443820     Delta-E=        0.294316511216 Rises=F Damp=F
 DIIS: error= 1.09D-02 at cycle   6 NSaved=   6.
 NSaved= 6 IEnMin= 5 EnMin= -26699.3521608933     IErMin= 6 ErrMin= 1.09D-02
 ErrMax= 1.09D-02  0.00D+00 EMaxC= 1.00D-01 BMatC= 8.62D-01 BMatP= 9.12D-01
 IDIUse=3 WtCom= 8.91D-01 WtEn= 1.09D-01
 Coeff-Com: -0.646D-01 0.951D-01 0.642D-01 0.300D-01 0.519D+00 0.357D+00
 Coeff-En:   0.000D+00 0.000D+00 0.000D+00 0.000D+00 0.570D+00 0.430D+00
 Coeff:     -0.576D-01 0.848D-01 0.572D-01 0.268D-01 0.524D+00 0.365D+00
 Gap=     0.121 Goal=   None    Shift=    0.000
 RMSDP=1.75D-03 MaxDP=2.47D-01 DE= 2.94D-01 OVMax= 1.78D-01

 Cycle   7  Pass 1  IDiag  1:
 RMSU=  9.01D-04    CP:  9.50D-01  3.41D-01  5.59D-01  8.09D-02  3.69D-01
                    CP:  3.62D-01
 E= -26699.9181884094     Delta-E=       -0.860344027322 Rises=F Damp=F
 DIIS: error= 2.26D-03 at cycle   7 NSaved=   7.
 NSaved= 7 IEnMin= 7 EnMin= -26699.9181884094     IErMin= 7 ErrMin= 2.26D-03
 ErrMax= 2.26D-03  0.00D+00 EMaxC= 1.00D-01 BMatC= 5.54D-02 BMatP= 8.62D-01
 IDIUse=3 WtCom= 9.77D-01 WtEn= 2.26D-02
 Coeff-Com: -0.537D-01 0.749D-01 0.811D-02-0.472D-02 0.267D+00 0.228D+00
 Coeff-Com:  0.480D+00
 Coeff-En:   0.000D+00 0.000D+00 0.000D+00 0.000D+00 0.000D+00 0.000D+00
 Coeff-En:   0.100D+01
 Coeff:     -0.525D-01 0.732D-01 0.793D-02-0.461D-02 0.261D+00 0.223D+00
 Coeff:      0.492D+00
 Gap=     0.105 Goal=   None    Shift=    0.000
 RMSDP=5.68D-04 MaxDP=7.51D-02 DE=-8.60D-01 OVMax= 7.32D-02

 Cycle   8  Pass 1  IDiag  1:
 RMSU=  3.89D-04    CP:  9.38D-01  3.55D-01  5.55D-01  8.24D-02  3.96D-01
                    CP:  4.32D-01  5.98D-01
 E= -26699.9591111252     Delta-E=       -0.040922715838 Rises=F Damp=F
 DIIS: error= 1.31D-03 at cycle   8 NSaved=   8.
 NSaved= 8 IEnMin= 8 EnMin= -26699.9591111252     IErMin= 8 ErrMin= 1.31D-03
 ErrMax= 1.31D-03  0.00D+00 EMaxC= 1.00D-01 BMatC= 1.39D-02 BMatP= 5.54D-02
 IDIUse=3 WtCom= 9.87D-01 WtEn= 1.31D-02
 Coeff-Com: -0.185D-01 0.254D-01-0.171D-02-0.385D-02 0.894D-01 0.681D-01
 Coeff-Com:  0.328D+00 0.513D+00
 Coeff-En:   0.000D+00 0.000D+00 0.000D+00 0.000D+00 0.000D+00 0.000D+00
 Coeff-En:   0.264D+00 0.736D+00
 Coeff:     -0.183D-01 0.251D-01-0.169D-02-0.380D-02 0.883D-01 0.672D-01
 Coeff:      0.327D+00 0.516D+00
 Gap=     0.103 Goal=   None    Shift=    0.000
 RMSDP=2.60D-04 MaxDP=3.51D-02 DE=-4.09D-02 OVMax= 4.38D-02

 Error on total polarization charges =  0.02465
 SCF Done:  E(RPBE-PBE) =  -26699.9591111     A.U. after    8 cycles
            NFock=  8  Conv=0.26D-03     -V/T= 2.0155
 KE= 2.629332888952D+04 PE=-8.905997670086D+04 EE= 2.311120959485D+04
 Leave Link  502 at Thu Nov 28 13:06:37 2019, MaxMem=   939524096 cpu:     36832.8
 (Enter /scr/programas/g09/l801.exe)
 Range of M.O.s used for correlation:     1  1769
 NBasis=  1769 NAE=   244 NBE=   244 NFC=     0 NFV=     0
 NROrb=   1769 NOA=   244 NOB=   244 NVA=  1525 NVB=  1525

 **** Warning!!: The largest alpha MO coefficient is  0.62193032D+02

 Leave Link  801 at Thu Nov 28 13:06:37 2019, MaxMem=   939524096 cpu:         0.3
 (Enter /scr/programas/g09/l1002.exe)
 Minotr:  Closed shell wavefunction.
 NEqPCM:  Using equilibrium solvation (IEInf=0, Eps=   8.9300, EpsInf=   2.0283)
          Direct CPHF calculation.
          Differentiating once with respect to magnetic field using GIAOs.
          Electric field/nuclear overlap derivatives assumed to be zero.
          Requested convergence is 1.0D-08 RMS, and 1.0D-07 maximum.
          Secondary convergence is 1.0D-12 RMS, and 1.0D-12 maximum.
          NewPWx=T KeepS1=F KeepF1=F KeepIn=T MapXYZ=F SortEE=F KeepMc=T.
          MDV=     939521635 using IRadAn=       2.
 Defaulting to unpruned grid for atomic number  78.
 Defaulting to unpruned grid for atomic number  50.
 Generate precomputed XC quadrature information.
          Solving linear equations simultaneously, MaxMat=      72.
 FoFJK:  IHMeth= 1 ICntrl=    6127 DoSepK=F KAlg= 0 I1Cent=   0 FoldK=F
 IRaf=         1 NMat=   1 IRICut=       1 DoRegI=T DoRafI=F ISym2E= 0.
 Defaulting to unpruned grid for atomic number  78.
 Defaulting to unpruned grid for atomic number  78.
 Defaulting to unpruned grid for atomic number  78.
 Defaulting to unpruned grid for atomic number  78.
          There are     3 degrees of freedom in the 1st order CPHF.  IDoFFX=0 NUNeed=     3.
      3 vectors produced by pass  0 Test12= 1.24D-11 3.33D-08 XBig12= 2.05D+04 8.38D+00.
 AX will form     3 AO Fock derivatives at one time.
 InvSVY:  IOpt=1 It=  1 EMax= 0.00D+00
 Solved reduced A of dimension     3 with     3 vectors.
 Calculating GIAO nuclear magnetic shielding tensors.
 SCF GIAO Magnetic shielding tensor (ppm):
      1  Pt   Isotropic =  3025.8764   Anisotropy =  1756.8273
   XX=  4165.4309   YX=  -137.0304   ZX=   -18.0822
   XY=  -181.9082   YY=  3389.4155   ZY=   -77.5671
   XZ=   -79.3554   YZ=  -195.9859   ZZ=  1522.7827
   Eigenvalues:  1511.4424  3369.0921  4197.0945
      2  P    Isotropic =   293.2859   Anisotropy =   108.9691
   XX=   316.4896   YX=    -9.6487   ZX=     9.4478
   XY=   -41.2548   YY=   349.5361   ZY=   -14.8906
   XZ=    58.2685   YZ=     8.5358   ZZ=   213.8321
   Eigenvalues:   203.5412   310.3846   365.9320
      3  C    Isotropic =   203.8883   Anisotropy =   179.5746
   XX=   321.4381   YX=    72.2146   ZX=    44.4645
   XY=   -85.3701   YY=   271.3054   ZY=   -20.0424
   XZ=    -4.2443   YZ=    18.6105   ZZ=    18.9215
   Eigenvalues:    17.5902   270.4701   323.6047
      4  C    Isotropic =   197.9561   Anisotropy =   449.0932
   XX=   294.2874   YX=   166.7682   ZX=    46.0242
   XY=   276.8702   YY=   240.0666   ZY=  -118.9988
   XZ=   -50.5283   YZ=   -38.0414   ZZ=    59.5143
   Eigenvalues:    -8.7993   105.3160   497.3516
      5  C    Isotropic =   185.2684   Anisotropy =   413.8580
   XX=   293.0195   YX=   149.7271   ZX=   -21.9754
   XY=   229.9421   YY=   242.6207   ZY=   136.9490
   XZ=   -13.0460   YZ=   -11.0788   ZZ=    20.1651
   Eigenvalues:   -18.1912   112.8228   461.1738
      6  C    Isotropic =    -2.6313   Anisotropy =    62.3000
   XX=    10.2168   YX=    18.5459   ZX=    37.7193
   XY=   -81.8503   YY=   -44.5051   ZY=   -25.2261
   XZ=   -72.2176   YZ=   -33.1893   ZZ=    26.3945
   Eigenvalues:   -70.7183    23.9224    38.9021
      7  H    Isotropic =    24.5089   Anisotropy =    12.6236
   XX=    22.5602   YX=    -5.5363   ZX=     1.6913
   XY=   -11.0131   YY=    24.4485   ZY=   -11.9190
   XZ=     1.4054   YZ=     7.5950   ZZ=    26.5181
   Eigenvalues:    15.1686    25.4335    32.9247
      8  C    Isotropic =     4.3696   Anisotropy =   118.8615
   XX=    11.7693   YX=     8.1241   ZX=   -28.0090
   XY=   -63.9282   YY=   -36.3276   ZY=    81.7267
   XZ=   105.7015   YZ=    52.7710   ZZ=    37.6670
   Eigenvalues:   -94.5002    23.9983    83.6105
      9  H    Isotropic =    24.4120   Anisotropy =    20.8519
   XX=    19.1518   YX=     0.5861   ZX=     1.8314
   XY=   -18.7478   YY=    25.8735   ZY=    -0.6178
   XZ=     3.3753   YZ=   -14.7270   ZZ=    28.2107
   Eigenvalues:    12.4326    22.4902    38.3132
     10  C    Isotropic =   -93.0101   Anisotropy =   152.2343
   XX=  -150.3727   YX=   -43.7983   ZX=     1.6285
   XY=  -235.3795   YY=  -136.2840   ZY=    11.1230
   XZ=    20.1822   YZ=    11.0806   ZZ=     7.6264
   Eigenvalues:  -283.9246    -3.5852     8.4795
     11  H    Isotropic =    20.2707   Anisotropy =    13.5205
   XX=    18.1648   YX=    -8.2256   ZX=     0.5608
   XY=   -11.2769   YY=    20.7207   ZY=    -2.3734
   XZ=     0.2971   YZ=     2.5231   ZZ=    21.9266
   Eigenvalues:     9.5969    21.9308    29.2844
     12  H    Isotropic =    20.7358   Anisotropy =    13.3834
   XX=    18.5038   YX=    -5.2967   ZX=     1.3318
   XY=   -10.8014   YY=    21.5943   ZY=    -0.8253
   XZ=     1.9507   YZ=    -4.9254   ZZ=    22.1093
   Eigenvalues:    11.8198    20.7297    29.6581
     13  H    Isotropic =    19.5415   Anisotropy =    11.8983
   XX=    14.3863   YX=    -7.6225   ZX=     1.2991
   XY=   -10.6884   YY=    20.7776   ZY=    -0.4203
   XZ=     0.5974   YZ=    -0.3966   ZZ=    23.4605
   Eigenvalues:     7.8663    23.2845    27.4737
     14  C    Isotropic =   160.8492   Anisotropy =   174.8876
   XX=   170.9031   YX=  -132.6953   ZX=   -58.3187
   XY=   -77.2162   YY=   120.8001   ZY=     2.4889
   XZ=   -82.0054   YZ=   -47.9819   ZZ=   190.8443
   Eigenvalues:    15.5880   189.5186   277.4409
     15  C    Isotropic =   167.8092   Anisotropy =   373.7750
   XX=   199.2380   YX=  -180.9491   ZX=   -32.9547
   XY=  -224.2481   YY=   225.8961   ZY=   -19.8490
   XZ=    76.3094   YZ=     1.0359   ZZ=    78.2937
   Eigenvalues:     8.2495    78.1857   416.9926
     16  C    Isotropic =   141.7972   Anisotropy =   340.8200
   XX=   167.9401   YX=  -160.6482   ZX=   -34.0277
   XY=  -168.5951   YY=   233.8574   ZY=    20.8213
   XZ=   -43.5140   YZ=   -61.8525   ZZ=    23.5941
   Eigenvalues:   -15.0553    71.4363   369.0105
     17  C    Isotropic =   -49.4044   Anisotropy =   142.3916
   XX=   -35.6299   YX=    35.5778   ZX=     2.7797
   XY=   117.2165   YY=  -127.4145   ZY=   -15.9359
   XZ=    50.0790   YZ=    60.6412   ZZ=    14.8313
   Eigenvalues:  -170.8749   -22.8616    45.5234
     18  H    Isotropic =    24.3278   Anisotropy =    11.9479
   XX=    22.5633   YX=     5.7293   ZX=    -4.6077
   XY=     8.2908   YY=    26.1846   ZY=    -4.8625
   XZ=    -0.2622   YZ=     2.7568   ZZ=    24.2356
   Eigenvalues:    16.8986    23.7917    32.2931
     19  C    Isotropic =    41.3723   Anisotropy =   111.1204
   XX=    52.2721   YX=   -24.6777   ZX=    -3.1152
   XY=   -44.9774   YY=    89.6597   ZY=    11.2551
   XZ=   -60.6486   YZ=     9.1924   ZZ=   -17.8150
   Eigenvalues:   -30.2341    38.8984   115.4525
     20  H    Isotropic =    21.2249   Anisotropy =    13.3592
   XX=    19.1560   YX=     2.1232   ZX=     0.5752
   XY=     6.3217   YY=    14.8218   ZY=     2.4655
   XZ=    -3.7777   YZ=     2.0788   ZZ=    29.6970
   Eigenvalues:    11.8126    21.7312    30.1311
     21  C    Isotropic =   -80.0062   Anisotropy =   141.5887
   XX=   -82.7357   YX=    93.6164   ZX=    33.0048
   XY=   122.6127   YY=  -121.2281   ZY=   -11.8187
   XZ=   -26.3091   YZ=    59.7956   ZZ=   -36.0546
   Eigenvalues:  -213.2964   -41.1084    14.3863
     22  H    Isotropic =    20.4502   Anisotropy =    11.5217
   XX=    17.6087   YX=     7.6708   ZX=    -2.4605
   XY=     7.8168   YY=    17.6898   ZY=    -3.3158
   XZ=    -2.4154   YZ=     1.5441   ZZ=    26.0522
   Eigenvalues:     9.8286    23.3907    28.1314
     23  H    Isotropic =    20.4032   Anisotropy =    11.8307
   XX=    18.2187   YX=     6.1097   ZX=    -1.7099
   XY=     5.6744   YY=    15.9866   ZY=     0.1470
   XZ=    -3.5073   YZ=    -1.7450   ZZ=    27.0042
   Eigenvalues:    11.0346    21.8846    28.2903
     24  H    Isotropic =    18.9896   Anisotropy =    11.3210
   XX=    16.3672   YX=     8.6617   ZX=    -0.1099
   XY=    10.2306   YY=    15.7142   ZY=    -2.1340
   XZ=    -1.0091   YZ=    -0.4687   ZZ=    24.8873
   Eigenvalues:     6.5725    23.8593    26.5369
     25  C    Isotropic =   128.8170   Anisotropy =   113.1127
   XX=    68.3525   YX=    20.4628   ZX=    20.0585
   XY=    22.8008   YY=   194.8881   ZY=   -13.6523
   XZ=    98.1702   YZ=    30.9341   ZZ=   123.2103
   Eigenvalues:    29.4794   152.7461   204.2255
     26  C    Isotropic =   191.3687   Anisotropy =   414.1369
   XX=    12.5546   YX=    13.6949   ZX=    29.7959
   XY=   -42.6778   YY=   346.0942   ZY=  -164.4222
   XZ=   -21.5866   YZ=  -184.3932   ZZ=   215.4575
   Eigenvalues:    11.8203    94.8260   467.4600
     27  C    Isotropic =   110.0879   Anisotropy =   385.0427
   XX=   -22.8933   YX=   -15.1161   ZX=    18.4964
   XY=    76.8809   YY=   246.0747   ZY=  -172.7322
   XZ=    42.2437   YZ=  -180.9799   ZZ=   107.0823
   Eigenvalues:   -61.0095    24.4902   366.7831
     28  C    Isotropic =   -52.6454   Anisotropy =   144.5690
   XX=   -65.7027   YX=    14.4812   ZX=   -17.5024
   XY=    -0.3931   YY=   -66.7386   ZY=    61.3561
   XZ=  -107.8369   YZ=    67.8412   ZZ=   -25.4948
   Eigenvalues:  -142.5063   -59.1638    43.7340
     29  H    Isotropic =    20.8988   Anisotropy =    17.2846
   XX=    30.9376   YX=     8.7161   ZX=     6.0865
   XY=    -0.9322   YY=    18.7962   ZY=     0.2808
   XZ=    -1.2731   YZ=     1.6850   ZZ=    12.9624
   Eigenvalues:    12.6050    17.6695    32.4218
     30  C    Isotropic =   -33.9522   Anisotropy =    77.5803
   XX=     4.4547   YX=    16.8025   ZX=     8.2220
   XY=    26.1589   YY=   -26.7831   ZY=   -11.6312
   XZ=    42.0924   YZ=   -25.1772   ZZ=   -79.5281
   Eigenvalues:   -94.8638   -24.7607    17.7680
     31  H    Isotropic =    21.6105   Anisotropy =    11.7277
   XX=    21.7695   YX=     1.0309   ZX=     3.1898
   XY=    -3.4484   YY=    16.7578   ZY=     1.6315
   XZ=     4.4196   YZ=     7.4207   ZZ=    26.3043
   Eigenvalues:    14.0436    21.3590    29.4290
     32  C    Isotropic =   -49.3027   Anisotropy =    81.2333
   XX=   -21.4945   YX=   -27.0552   ZX=   -39.7062
   XY=   -24.5819   YY=   -37.6497   ZY=   -44.6735
   XZ=   -59.3569   YZ=   -46.5342   ZZ=   -88.7638
   Eigenvalues:  -141.4435   -11.3174     4.8529
     33  H    Isotropic =    13.1466   Anisotropy =    19.9233
   XX=    24.3225   YX=     4.3324   ZX=     2.0034
   XY=    -0.3753   YY=     1.7318   ZY=    13.3997
   XZ=    -0.1938   YZ=    18.9012   ZZ=    13.3854
   Eigenvalues:    -9.6464    22.6574    26.4288
     34  H    Isotropic =    15.8817   Anisotropy =    16.5247
   XX=    24.1401   YX=     0.9109   ZX=     1.8145
   XY=     0.9496   YY=     8.3026   ZY=    11.8125
   XZ=     1.8407   YZ=    14.6444   ZZ=    15.2024
   Eigenvalues:    -1.9240    22.6709    26.8982
     35  H    Isotropic =     8.7589   Anisotropy =    24.6355
   XX=    25.0348   YX=     2.2077   ZX=    -0.7182
   XY=     0.9566   YY=    -6.6284   ZY=    21.4420
   XZ=    -1.0910   YZ=    24.3947   ZZ=     7.8704
   Eigenvalues:   -23.4842    24.5784    25.1826
     36  Sn   Isotropic =  1916.6423   Anisotropy =   783.3347
   XX=  1919.5454   YX=   226.2004   ZX=    -2.4720
   XY=   289.5475   YY=  2309.2425   ZY=   -44.7625
   XZ=     3.2082   YZ=   -31.5885   ZZ=  1521.1390
   Eigenvalues:  1518.7761  1792.2853  2438.8654
     37  Cl   Isotropic =   822.5783   Anisotropy =   141.5000
   XX=   731.9215   YX=    67.4814   ZX=   -18.7836
   XY=    56.6847   YY=   824.7162   ZY=    11.7134
   XZ=   -12.5637   YZ=    34.5921   ZZ=   911.0974
   Eigenvalues:   698.0078   852.8155   916.9117
     38  P    Isotropic =   264.9569   Anisotropy =    56.4476
   XX=   288.6683   YX=    18.1054   ZX=    -3.2273
   XY=   -44.1117   YY=   289.5578   ZY=    -1.5020
   XZ=    -1.8747   YZ=   -20.6551   ZZ=   216.6448
   Eigenvalues:   214.7251   277.5570   302.5887
     39  C    Isotropic =    25.4257   Anisotropy =   134.6180
   XX=   114.4402   YX=    -0.7661   ZX=   -12.9708
   XY=     3.7610   YY=   -50.4776   ZY=     6.6352
   XZ=    -4.2762   YZ=     1.8979   ZZ=    12.3145
   Eigenvalues:   -50.7924    11.8985   115.1710
     40  C    Isotropic =    50.7887   Anisotropy =   200.8490
   XX=   167.6720   YX=    54.5481   ZX=    -6.5971
   XY=    44.6195   YY=    35.9788   ZY=    10.8388
   XZ=   -25.4233   YZ=    21.3648   ZZ=   -51.2845
   Eigenvalues:   -57.1166    24.7948   184.6881
     41  C    Isotropic =    49.9056   Anisotropy =   207.5476
   XX=   171.7990   YX=    45.5660   ZX=   -27.5055
   XY=    45.9591   YY=    20.4059   ZY=   -44.5246
   XZ=    -8.1258   YZ=   -42.0918   ZZ=   -42.4881
   Eigenvalues:   -64.6747    26.1209   188.2706
     42  C    Isotropic =    25.3930   Anisotropy =   178.8017
   XX=   139.9488   YX=    17.9907   ZX=   -13.3891
   XY=    36.4533   YY=   -21.2742   ZY=   -73.6484
   XZ=    22.3905   YZ=   -47.2119   ZZ=   -42.4955
   Eigenvalues:   -95.1277    26.7126   144.5942
     43  H    Isotropic =    25.2723   Anisotropy =    17.1100
   XX=    19.6857   YX=    -2.4128   ZX=    -3.5225
   XY=    -5.2893   YY=    35.3141   ZY=     0.9654
   XZ=    -4.1943   YZ=     2.7169   ZZ=    20.8170
   Eigenvalues:    16.1818    22.9561    36.6789
     44  C    Isotropic =    30.6984   Anisotropy =   170.1342
   XX=   134.1246   YX=    29.3685   ZX=   -15.6974
   XY=    31.4824   YY=    10.6691   ZY=    50.6197
   XZ=   -50.7874   YZ=    33.0000   ZZ=   -52.6986
   Eigenvalues:   -82.1992    30.1731   144.1212
     45  H    Isotropic =    25.4592   Anisotropy =    16.4596
   XX=    21.1976   YX=    -3.1281   ZX=     3.3016
   XY=    -5.1772   YY=    33.9815   ZY=    -2.6431
   XZ=     4.4090   YZ=    -3.9279   ZZ=    21.1986
   Eigenvalues:    17.3140    22.6314    36.4323
     46  C    Isotropic =    56.1976   Anisotropy =   301.9606
   XX=   222.4086   YX=    73.2471   ZX=   -19.8138
   XY=   138.5544   YY=   -78.9220   ZY=     3.0043
   XZ=   -21.3790   YZ=    -0.6573   ZZ=    25.1062
   Eigenvalues:  -112.8094    23.8976   257.5047
     47  H    Isotropic =    20.0018   Anisotropy =    14.0539
   XX=    11.1681   YX=    -5.7108   ZX=     0.5402
   XY=   -10.7183   YY=    25.5328   ZY=    -0.4209
   XZ=    -1.1792   YZ=    -1.6506   ZZ=    23.3044
   Eigenvalues:     7.4062    23.2281    29.3710
     48  H    Isotropic =    20.6816   Anisotropy =    13.2890
   XX=    13.2077   YX=    -5.1906   ZX=     2.0196
   XY=    -9.1641   YY=    26.3853   ZY=     1.4144
   XZ=     4.1348   YZ=     1.4957   ZZ=    22.4517
   Eigenvalues:     9.1811    23.3228    29.5409
     49  H    Isotropic =    17.9083   Anisotropy =    12.9122
   XX=     6.1819   YX=    -6.9469   ZX=     2.0087
   XY=   -12.6837   YY=    21.7420   ZY=     1.6287
   XZ=     2.1885   YZ=     0.6680   ZZ=    25.8010
   Eigenvalues:     1.2051    26.0033    26.5164
     50  C    Isotropic =    53.0563   Anisotropy =   109.4016
   XX=    34.6271   YX=   -36.5399   ZX=    -4.8383
   XY=   -30.0710   YY=   101.5397   ZY=    14.4263
   XZ=   -25.6480   YZ=    44.7876   ZZ=    23.0022
   Eigenvalues:    11.5526    21.6257   125.9907
     51  C    Isotropic =    72.8013   Anisotropy =   237.3696
   XX=   -22.3160   YX=   -11.7674   ZX=   -44.6446
   XY=   -26.6571   YY=   221.2197   ZY=    40.9728
   XZ=   -28.1438   YZ=    36.6255   ZZ=    19.5002
   Eigenvalues:   -43.4128    30.7690   231.0477
     52  C    Isotropic =    45.8044   Anisotropy =   203.8909
   XX=   -58.6369   YX=   -32.8393   ZX=   -10.6633
   XY=   -22.8517   YY=   174.0300   ZY=    38.4865
   XZ=   -26.4988   YZ=    10.4407   ZZ=    22.0200
   Eigenvalues:   -64.8169    20.4984   181.7316
     53  C    Isotropic =     7.1059   Anisotropy =   134.3621
   XX=   -91.1233   YX=   -28.2572   ZX=    22.4339
   XY=    51.2064   YY=    93.8644   ZY=   -16.1229
   XZ=    37.2525   YZ=    37.3896   ZZ=    18.5765
   Eigenvalues:   -99.0934    23.7303    96.6806
     54  H    Isotropic =    21.5959   Anisotropy =    13.4041
   XX=    27.7557   YX=     1.1062   ZX=    -4.8653
   XY=    -1.9383   YY=    14.9209   ZY=     0.8995
   XZ=    -4.7624   YZ=    -0.1972   ZZ=    22.1110
   Eigenvalues:    14.9003    19.3553    30.5319
     55  C    Isotropic =   -13.2381   Anisotropy =   101.8157
   XX=   -10.3534   YX=   -38.6245   ZX=   -59.1843
   XY=    -4.5377   YY=    36.6283   ZY=     1.1045
   XZ=   -61.9490   YZ=    11.4387   ZZ=   -65.9893
   Eigenvalues:  -105.1142    10.7609    54.6390
     56  H    Isotropic =    22.7481   Anisotropy =    13.7771
   XX=    18.7382   YX=    -0.2826   ZX=    -3.4885
   XY=    -4.4220   YY=    19.7466   ZY=     2.5502
   XZ=    -4.2118   YZ=     3.1066   ZZ=    29.7595
   Eigenvalues:    16.6687    19.6428    31.9328
     57  C    Isotropic =    45.3617   Anisotropy =   353.4893
   XX=    -3.8214   YX=   -24.1857   ZX=    48.5665
   XY=   -59.4223   YY=   269.7972   ZY=    74.1771
   XZ=    51.4710   YZ=    30.9783   ZZ=  -129.8906
   Eigenvalues:  -156.8133    11.8772   281.0213
     58  H    Isotropic =    14.8898   Anisotropy =    16.2833
   XX=    24.0345   YX=    -1.0355   ZX=    -1.3588
   XY=     4.5093   YY=    -4.4490   ZY=    -2.2049
   XZ=    -0.2999   YZ=    -1.5437   ZZ=    25.0837
   Eigenvalues:    -4.6660    23.5899    25.7453
     59  H    Isotropic =    19.3021   Anisotropy =    13.2925
   XX=    23.3401   YX=     4.3463   ZX=    -2.4812
   XY=     2.4404   YY=     8.6667   ZY=    -2.2023
   XZ=    -3.8685   YZ=     3.2114   ZZ=    25.8995
   Eigenvalues:     7.8411    21.9014    28.1638
     60  H    Isotropic =    13.0164   Anisotropy =    20.2336
   XX=    25.9711   YX=     1.9887   ZX=    -0.0012
   XY=     6.5517   YY=   -10.7263   ZY=    -5.2528
   XZ=    -0.1801   YZ=     0.9205   ZZ=    23.8044
   Eigenvalues:   -11.3472    23.8908    26.5055
     61  C    Isotropic =    55.1324   Anisotropy =   150.7183
   XX=    59.5570   YX=   -61.8403   ZX=    19.2131
   XY=   -46.1418   YY=    90.2322   ZY=   -53.9003
   XZ=    27.3005   YZ=   -57.1734   ZZ=    15.6080
   Eigenvalues:   -14.4753    24.2613   155.6112
     62  C    Isotropic =    83.1590   Anisotropy =   251.3953
   XX=    13.0791   YX=   -66.7449   ZX=    61.6842
   XY=   -83.9417   YY=   213.6181   ZY=   -36.7332
   XZ=    36.0477   YZ=   -39.7746   ZZ=    22.7799
   Eigenvalues:   -35.9879    34.7091   250.7559
     63  C    Isotropic =    42.7279   Anisotropy =   204.0246
   XX=   -30.3831   YX=   -77.1934   ZX=    35.6157
   XY=   -87.9289   YY=   128.3110   ZY=   -49.6820
   XZ=    41.5070   YZ=   -20.3109   ZZ=    30.2559
   Eigenvalues:   -70.7264    20.1660   178.7443
     64  C    Isotropic =    -3.7263   Anisotropy =    99.6108
   XX=   -67.3161   YX=   -65.7919   ZX=    -4.4816
   XY=   -22.8322   YY=    28.4865   ZY=    -8.1635
   XZ=   -16.3412   YZ=   -50.0343   ZZ=    27.6506
   Eigenvalues:   -88.3515    14.4917    62.6809
     65  H    Isotropic =    22.3293   Anisotropy =    10.7401
   XX=    27.3054   YX=     1.9536   ZX=     3.2916
   XY=     3.8236   YY=    17.9622   ZY=     2.3107
   XZ=     2.3983   YZ=     1.3560   ZZ=    21.7205
   Eigenvalues:    16.8918    20.6067    29.4894
     66  C    Isotropic =    -3.6071   Anisotropy =   134.4448
   XX=    16.9750   YX=   -51.5234   ZX=    66.7038
   XY=   -14.0270   YY=    49.9281   ZY=   -13.2059
   XZ=    68.4620   YZ=   -12.1752   ZZ=   -77.7245
   Eigenvalues:  -112.9905    16.1464    86.0228
     67  H    Isotropic =    23.4083   Anisotropy =    11.4966
   XX=    20.9091   YX=     0.4549   ZX=     1.9409
   XY=    -5.3301   YY=    19.6771   ZY=     2.1453
   XZ=     5.6008   YZ=    -1.5680   ZZ=    29.6386
   Eigenvalues:    17.1930    21.9592    31.0727
     68  C    Isotropic =    29.3531   Anisotropy =   332.1182
   XX=    21.3247   YX=   -73.1979   ZX=   -18.3971
   XY=  -112.5324   YY=   191.6898   ZY=  -128.2135
   XZ=   -46.9512   YZ=   -76.8274   ZZ=  -124.9553
   Eigenvalues:  -173.8129    11.1070   250.7652
     69  H    Isotropic =    15.8865   Anisotropy =    15.0104
   XX=    22.8532   YX=     3.1069   ZX=     0.5611
   XY=     9.5584   YY=     0.3721   ZY=     5.6807
   XZ=    -0.5008   YZ=     2.6766   ZZ=    24.4342
   Eigenvalues:    -1.9079    23.6739    25.8934
     70  H    Isotropic =    18.9235   Anisotropy =    13.2694
   XX=    21.6258   YX=     8.7311   ZX=     1.2623
   XY=     5.4032   YY=     9.9340   ZY=     3.5050
   XZ=     4.4397   YZ=    -3.1360   ZZ=    25.2107
   Eigenvalues:     6.5483    22.4524    27.7697
     71  H    Isotropic =    14.0476   Anisotropy =    18.9878
   XX=    23.1879   YX=     7.9855   ZX=    -1.9522
   XY=    12.9253   YY=    -4.3778   ZY=     8.0854
   XZ=    -0.8881   YZ=    -0.0146   ZZ=    23.3325
   Eigenvalues:    -8.4700    23.9066    26.7061
     72  Cl   Isotropic =   814.3355   Anisotropy =   196.5848
   XX=   730.6168   YX=   -63.1001   ZX=   -41.0210
   XY=   -34.7616   YY=   796.0360   ZY=    76.2427
   XZ=    -0.9131   YZ=    36.3586   ZZ=   916.3537
   Eigenvalues:   704.1145   793.5000   945.3920
     73  C    Isotropic =   154.3254   Anisotropy =    25.7080
   XX=   157.4508   YX=     1.3259   ZX=     2.8147
   XY=    14.0628   YY=   167.2392   ZY=    -2.6017
   XZ=     0.2955   YZ=     0.7623   ZZ=   138.2863
   Eigenvalues:   138.0710   153.4412   171.4641
     74  H    Isotropic =    32.4389   Anisotropy =    11.0011
   XX=    32.5435   YX=    -1.4029   ZX=     6.7285
   XY=     2.0667   YY=    37.8544   ZY=    -4.9378
   XZ=     2.9985   YZ=    -4.0501   ZZ=    26.9189
   Eigenvalues:    22.9820    34.5617    39.7730
     75  H    Isotropic =    32.5427   Anisotropy =    11.7359
   XX=    31.4856   YX=    -1.1897   ZX=    -5.3820
   XY=     1.0621   YY=    39.5058   ZY=     2.5863
   XZ=    -4.0017   YZ=     3.5690   ZZ=    26.6367
   Eigenvalues:    23.3562    33.9053    40.3666
     76  Cl   Isotropic =   890.9083   Anisotropy =   214.7931
   XX=   805.5277   YX=   -87.5565   ZX=    -5.8776
   XY=   -97.0256   YY=   836.3767   ZY=   -25.7138
   XZ=   -47.9286   YZ=    12.6459   ZZ=  1030.8205
   Eigenvalues:   725.3696   913.2515  1034.1037
     77  C    Isotropic =   151.6478   Anisotropy =    35.7528
   XX=   138.3295   YX=     1.5165   ZX=   -10.6933
   XY=    13.7374   YY=   170.5169   ZY=     5.3595
   XZ=   -11.5192   YZ=    18.0297   ZZ=   146.0971
   Eigenvalues:   126.5276   152.9329   175.4830
     78  H    Isotropic =    32.3144   Anisotropy =     9.5687
   XX=    33.0911   YX=     0.9794   ZX=    -2.9097
   XY=     5.9545   YY=    35.6363   ZY=    -0.7055
   XZ=    -3.9971   YZ=    -0.5386   ZZ=    28.2159
   Eigenvalues:    26.2910    31.9587    38.6935
     79  H    Isotropic =    30.1580   Anisotropy =     8.5867
   XX=    29.4519   YX=     5.0436   ZX=     1.6849
   XY=     4.0240   YY=    32.6822   ZY=    -2.6309
   XZ=     4.1459   YZ=    -1.1746   ZZ=    28.3399
   Eigenvalues:    23.6645    30.9271    35.8824
     80  C    Isotropic =   150.9855   Anisotropy =    27.0005
   XX=   132.9444   YX=    -0.7785   ZX=    -4.6462
   XY=     6.5402   YY=   167.5717   ZY=     3.6020
   XZ=    -4.5384   YZ=     5.8258   ZZ=   152.4404
   Eigenvalues:   131.4996   152.4710   168.9858
     81  H    Isotropic =    29.7992   Anisotropy =    14.3941
   XX=    31.4643   YX=     5.8910   ZX=    -4.0049
   XY=     6.5849   YY=    34.4296   ZY=     1.7510
   XZ=    -3.5372   YZ=     2.3527   ZZ=    23.5038
   Eigenvalues:    20.5064    29.4960    39.3953
     82  H    Isotropic =    31.4280   Anisotropy =     8.4234
   XX=    25.8511   YX=     0.3480   ZX=     2.8079
   XY=     4.5204   YY=    36.4829   ZY=     0.3682
   XZ=     2.8736   YZ=    -2.3433   ZZ=    31.9499
   Eigenvalues:    24.1724    33.0679    37.0436
     83  C    Isotropic =   165.9741   Anisotropy =    36.7965
   XX=   155.9123   YX=     8.5715   ZX=    -3.7615
   XY=     8.2114   YY=   188.4160   ZY=     5.3575
   XZ=    -1.9156   YZ=    -1.1768   ZZ=   153.5941
   Eigenvalues:   150.4548   156.9624   190.5051
     84  H    Isotropic =    31.1101   Anisotropy =     9.7631
   XX=    27.7017   YX=    -0.4378   ZX=     1.6195
   XY=     0.8305   YY=    36.0797   ZY=    -3.9998
   XZ=     2.1888   YZ=    -2.9538   ZZ=    29.5487
   Eigenvalues:    26.0237    29.6877    37.6188
     85  H    Isotropic =    30.7463   Anisotropy =    11.9645
   XX=    26.3001   YX=     0.6355   ZX=    -1.1844
   XY=     1.5982   YY=    36.0218   ZY=     5.7690
   XZ=    -1.2080   YZ=     3.9537   ZZ=    29.9169
   Eigenvalues:    25.1033    28.4128    38.7226
     86  H    Isotropic =    31.1747   Anisotropy =    11.2582
   XX=    34.1758   YX=     3.5879   ZX=    -0.1236
   XY=     6.5545   YY=    32.9666   ZY=    -0.0147
   XZ=    -0.5950   YZ=     0.3744   ZZ=    26.3817
   Eigenvalues:    26.3152    28.5288    38.6802
 End of Minotr F.D. properties file   721 does not exist.
 End of Minotr F.D. properties file   722 does not exist.
 End of Minotr F.D. properties file   788 does not exist.
 Leave Link 1002 at Thu Nov 28 20:19:40 2019, MaxMem=   939524096 cpu:    101721.4
 (Enter /scr/programas/g09/l601.exe)
 Copying SCF densities to generalized density rwf, IOpCl= 0 IROHF=0.

 **********************************************************************

            Population analysis using the SCF density.

 **********************************************************************

 Orbital symmetries:
       Occupied  (A) (A) (A) (A) (A) (A) (A) (A) (A) (A) (A) (A)
                 (A) (A) (A) (A) (A) (A) (A) (A) (A) (A) (A) (A)
                 (A) (A) (A) (A) (A) (A) (A) (A) (A) (A) (A) (A)
                 (A) (A) (A) (A) (A) (A) (A) (A) (A) (A) (A) (A)
                 (A) (A) (A) (A) (A) (A) (A) (A) (A) (A) (A) (A)
                 (A) (A) (A) (A) (A) (A) (A) (A) (A) (A) (A) (A)
                 (A) (A) (A) (A) (A) (A) (A) (A) (A) (A) (A) (A)
                 (A) (A) (A) (A) (A) (A) (A) (A) (A) (A) (A) (A)
                 (A) (A) (A) (A) (A) (A) (A) (A) (A) (A) (A) (A)
                 (A) (A) (A) (A) (A) (A) (A) (A) (A) (A) (A) (A)
                 (A) (A) (A) (A) (A) (A) (A) (A) (A) (A) (A) (A)
                 (A) (A) (A) (A) (A) (A) (A) (A) (A) (A) (A) (A)
                 (A) (A) (A) (A) (A) (A) (A) (A) (A) (A) (A) (A)
                 (A) (A) (A) (A) (A) (A) (A) (A) (A) (A) (A) (A)
                 (A) (A) (A) (A) (A) (A) (A) (A) (A) (A) (A) (A)
                 (A) (A) (A) (A) (A) (A) (A) (A) (A) (A) (A) (A)
                 (A) (A) (A) (A) (A) (A) (A) (A) (A) (A) (A) (A)
                 (A) (A) (A) (A) (A) (A) (A) (A) (A) (A) (A) (A)
                 (A) (A) (A) (A) (A) (A) (A) (A) (A) (A) (A) (A)
                 (A) (A) (A) (A) (A) (A) (A) (A) (A) (A) (A) (A)
                 (A) (A) (A) (A)
       Virtual   (A) (A) (A) (A) (A) (A) (A) (A) (A) (A) (A) (A)
                 (A) (A) (A) (A) (A) (A) (A) (A) (A) (A) (A) (A)
                 (A) (A) (A) (A) (A) (A) (A) (A) (A) (A) (A) (A)
                 (A) (A) (A) (A) (A) (A) (A) (A) (A) (A) (A) (A)
                 (A) (A) (A) (A) (A) (A) (A) (A) (A) (A) (A) (A)
                 (A) (A) (A) (A) (A) (A) (A) (A) (A) (A) (A) (A)
                 (A) (A) (A) (A) (A) (A) (A) (A) (A) (A) (A) (A)
                 (A) (A) (A) (A) (A) (A) (A) (A) (A) (A) (A) (A)
                 (A) (A) (A) (A) (A) (A) (A) (A) (A) (A) (A) (A)
[...]
 Alpha virt. eigenvalues --    1.57350   1.57584   1.57769   1.58219   1.58295
 Alpha virt. eigenvalues --    1.58838   1.58970   1.59365   1.59624   1.60183
 Alpha virt. eigenvalues --    1.60498   1.60802   1.60819   1.61155   1.61210
 Alpha virt. eigenvalues --    1.61581   1.61668   1.62021   1.62345   1.62683
 Alpha virt. eigenvalues --    1.62784   1.63146   1.63310   1.63549   1.63801
 Alpha virt. eigenvalues --    1.63881   1.64379   1.64528   1.64890   1.65314
 Alpha virt. eigenvalues --    1.65465   1.65780   1.65953   1.66431   1.66990
 Alpha virt. eigenvalues --    1.67212   1.67367   1.67795   1.68090   1.68377
 Alpha virt. eigenvalues --    1.68480   1.68597   1.68843   1.68964   1.69278
 Alpha virt. eigenvalues --    1.69391   1.69770   1.69956   1.70129   1.70416
 Alpha virt. eigenvalues --    1.70571   1.70954   1.71023   1.71264   1.71538
 Alpha virt. eigenvalues --    1.71811   1.71844   1.72318   1.72541   1.72987
 Alpha virt. eigenvalues --    1.73306   1.73416   1.73675   1.73877   1.74233
 Alpha virt. eigenvalues --    1.74408   1.74761   1.74952   1.75217   1.75381
 Alpha virt. eigenvalues --    1.75728   1.76088   1.76287   1.76632   1.76930
 Alpha virt. eigenvalues --    1.77267   1.77658   1.78138   1.78711   1.79228
 Alpha virt. eigenvalues --    1.79895   1.80686   1.80862   1.81650   1.82953
 Alpha virt. eigenvalues --    1.83347   1.83645   1.84124   1.84417   1.84674
 Alpha virt. eigenvalues --    1.85161   1.85534   1.86030   1.86639   1.86960
 Alpha virt. eigenvalues --    1.87058   1.87537   1.87690   1.88112   1.88539
 Alpha virt. eigenvalues --    1.88894   1.89151   1.89391   1.89858   1.90207
 Alpha virt. eigenvalues --    1.90593   1.90863   1.91318   1.91490   1.91855
 Alpha virt. eigenvalues --    1.92110   1.92269   1.92928   1.93157   1.93455
 Alpha virt. eigenvalues --    1.94028   1.94361   1.94618   1.94929   1.95304
 Alpha virt. eigenvalues --    1.96275   1.96871   1.96916   1.97790   1.98060
 Alpha virt. eigenvalues --    1.98351   1.98734   1.99387   1.99732   1.99989
 Alpha virt. eigenvalues --    2.00201   2.00481   2.00781   2.00894   2.01221
 Alpha virt. eigenvalues --    2.01444   2.01911   2.02753   2.02813   2.03147
 Alpha virt. eigenvalues --    2.03519   2.03704   2.04051   2.04187   2.04516
 Alpha virt. eigenvalues --    2.04719   2.05232   2.05382   2.05664   2.05963
 Alpha virt. eigenvalues --    2.06136   2.06482   2.06917   2.07140   2.07364
 Alpha virt. eigenvalues --    2.07674   2.08208   2.08523   2.08754   2.08919
 Alpha virt. eigenvalues --    2.09102   2.09579   2.10169   2.10663   2.10924
 Alpha virt. eigenvalues --    2.11133   2.11581   2.11895   2.12302   2.13181
 Alpha virt. eigenvalues --    2.13549   2.13650   2.13802   2.14216   2.14460
 Alpha virt. eigenvalues --    2.15230   2.15353   2.15984   2.16210   2.16405
 Alpha virt. eigenvalues --    2.16563   2.17122   2.17423   2.17826   2.18107
 Alpha virt. eigenvalues --    2.18591   2.18645   2.19056   2.19512   2.19667
 Alpha virt. eigenvalues --    2.20291   2.20325   2.20736   2.20999   2.21381
 Alpha virt. eigenvalues --    2.21589   2.21826   2.22222   2.22438   2.22695
 Alpha virt. eigenvalues --    2.23470   2.24180   2.24683   2.24831   2.25696
 Alpha virt. eigenvalues --    2.26318   2.26657   2.27558   2.27893   2.28278
 Alpha virt. eigenvalues --    2.28558   2.29139   2.29400   2.29524   2.30101
 Alpha virt. eigenvalues --    2.30210   2.30402   2.30929   2.31237   2.31773
 Alpha virt. eigenvalues --    2.31940   2.32365   2.32531   2.33525   2.33967
 Alpha virt. eigenvalues --    2.34256   2.34689   2.34834   2.35058   2.35658
 Alpha virt. eigenvalues --    2.35724   2.36087   2.36739   2.37007   2.37385
 Alpha virt. eigenvalues --    2.37521   2.37792   2.38242   2.38747   2.38919
 Alpha virt. eigenvalues --    2.39118   2.39339   2.39781   2.40287   2.40383
 Alpha virt. eigenvalues --    2.40806   2.41324   2.41508   2.41906   2.42228
 Alpha virt. eigenvalues --    2.42846   2.42875   2.43302   2.43821   2.44099
 Alpha virt. eigenvalues --    2.44669   2.45185   2.46134   2.46471   2.46607
 Alpha virt. eigenvalues --    2.46922   2.47607   2.48327   2.48522   2.49289
 Alpha virt. eigenvalues --    2.49634   2.49906   2.50106   2.50965   2.51185
 Alpha virt. eigenvalues --    2.51845   2.52464   2.52502   2.53086   2.54171
 Alpha virt. eigenvalues --    2.54823   2.55445   2.56081   2.56353   2.57042
 Alpha virt. eigenvalues --    2.57470   2.57908   2.58114   2.58521   2.59228
 Alpha virt. eigenvalues --    2.59659   2.59966   2.60826   2.61096   2.61592
 Alpha virt. eigenvalues --    2.62040   2.62331   2.62465   2.62661   2.63153
 Alpha virt. eigenvalues --    2.63486   2.63772   2.64211   2.64709   2.65631
 Alpha virt. eigenvalues --    2.66066   2.66771   2.67219   2.67898   2.68632
 Alpha virt. eigenvalues --    2.68958   2.69379   2.69622   2.69873   2.70377
 Alpha virt. eigenvalues --    2.70624   2.70961   2.71942   2.71979   2.72250
 Alpha virt. eigenvalues --    2.72424   2.72614   2.73282   2.73653   2.73660
 Alpha virt. eigenvalues --    2.74104   2.74740   2.75226   2.75325   2.75350
 Alpha virt. eigenvalues --    2.75945   2.76309   2.77100   2.77447   2.78323
 Alpha virt. eigenvalues --    2.78662   2.78876   2.80505   2.81784   2.82388
 Alpha virt. eigenvalues --    2.83068   2.83213   2.83541   2.84194   2.84917
 Alpha virt. eigenvalues --    2.85170   2.85787   2.86775   2.87353   2.87548
 Alpha virt. eigenvalues --    2.88254   2.88664   2.89248   2.90119   2.90829
 Alpha virt. eigenvalues --    2.91143   2.92115   2.92524   2.93285   2.94292
 Alpha virt. eigenvalues --    2.94700   2.95540   2.95713   2.96074   2.96561
 Alpha virt. eigenvalues --    2.96603   2.96752   2.97811   2.98392   2.98581
 Alpha virt. eigenvalues --    2.98927   2.99188   2.99427   3.00002   3.00471
 Alpha virt. eigenvalues --    3.01254   3.01726   3.02314   3.02479   3.04416
 Alpha virt. eigenvalues --    3.05216   3.06062   3.06841   3.06864   3.08223
 Alpha virt. eigenvalues --    3.08671   3.08752   3.11102   3.11652   3.12376
 Alpha virt. eigenvalues --    3.12887   3.13124   3.13883   3.14347   3.14539
 Alpha virt. eigenvalues --    3.14918   3.15223   3.15491   3.16247   3.16351
 Alpha virt. eigenvalues --    3.16901   3.17260   3.18169   3.18750   3.19706
 Alpha virt. eigenvalues --    3.20876   3.21666   3.21888   3.22621   3.23005
 Alpha virt. eigenvalues --    3.23508   3.23763   3.24097   3.24653   3.25336
 Alpha virt. eigenvalues --    3.25844   3.26631   3.28210   3.29129   3.30241
 Alpha virt. eigenvalues --    3.31138   3.32399   3.32648   3.33407   3.34043
 Alpha virt. eigenvalues --    3.35011   3.37727   3.38791   3.43717   3.44478
 Alpha virt. eigenvalues --    3.45370   3.45574   3.46606   3.46954   3.48063
 Alpha virt. eigenvalues --    3.48327   3.48659   3.49876   3.51511   3.52106
 Alpha virt. eigenvalues --    3.52352   3.52691   3.53089   3.53291   3.66096
 Alpha virt. eigenvalues --    3.67258   3.72281   3.75606   3.82341   3.91378
 Alpha virt. eigenvalues --    3.93651   3.94893   3.98195   4.00192   4.05774
 Alpha virt. eigenvalues --    4.09870   4.14009   4.14571   4.15713   4.17482
 Alpha virt. eigenvalues --    4.18017   4.18275   4.20799   4.23365   4.23913
 Alpha virt. eigenvalues --    4.25018   4.25853   4.26791   4.28167   4.28665
 Alpha virt. eigenvalues --    4.30413   4.31857   4.32726   4.33788   4.34448
 Alpha virt. eigenvalues --    4.35832   4.37259   4.38423   4.39456   4.39693
 Alpha virt. eigenvalues --    4.41112   4.41255   4.43658   4.44631   4.46919
 Alpha virt. eigenvalues --    4.46972   4.47795   4.50674   4.51444   4.53425
 Alpha virt. eigenvalues --    4.58379   4.61272   4.77800   4.77964   4.78236
 Alpha virt. eigenvalues --    4.78797   4.78945   4.79430   5.61247   5.76138
 Alpha virt. eigenvalues --    5.87584   5.88998   5.95694   6.16095   6.62008
 Alpha virt. eigenvalues --    6.62478   6.64532   6.64855   6.65395   6.65890
 Alpha virt. eigenvalues --    6.67347   6.70434   6.76851   6.77945   6.78274
 Alpha virt. eigenvalues --    6.79057   6.80677   6.81330   6.82122   6.84054
 Alpha virt. eigenvalues --    6.86966   6.88510   6.89656   6.90960   6.91539
 Alpha virt. eigenvalues --    6.92273   6.93064   6.94339   6.95420   6.96749
 Alpha virt. eigenvalues --    6.98591   6.99036   7.00577   7.03097   7.04542
 Alpha virt. eigenvalues --    7.06334   7.07173   7.07607   7.08835   7.11501
 Alpha virt. eigenvalues --    7.12808   7.13577   7.24074   7.24402   7.25310
 Alpha virt. eigenvalues --    7.26305   7.26835   7.27235   7.72442   7.77015
 Alpha virt. eigenvalues --    7.78927   7.80163   7.81187   7.83413   8.48407
 Alpha virt. eigenvalues --    8.49187   8.49373   8.50512   8.50961   8.51348
 Alpha virt. eigenvalues --    8.51933   8.56530   8.62105   9.04395   9.89018
 Alpha virt. eigenvalues --    9.92046   9.94537   9.98011   9.98390  10.03538
 Alpha virt. eigenvalues --   10.03915  10.06777  10.08646  10.11655  10.12797
 Alpha virt. eigenvalues --   10.15369  10.23349  10.30174  14.17287  14.23124
 Alpha virt. eigenvalues --   15.81407  16.87260  16.96226  16.99674  17.02860
 Alpha virt. eigenvalues --   17.03914  17.04050  17.04449  17.04919  17.05254
 Alpha virt. eigenvalues --   17.05715  17.06152  17.06660  17.07651  17.08074
 Alpha virt. eigenvalues --   17.08518  17.09177  17.10350  17.11285  17.13018
 Alpha virt. eigenvalues --   17.14834  17.14948  17.16143  17.16703  17.17021
 Alpha virt. eigenvalues --   17.19600  17.21596  17.22588  17.24005  17.26563
 Alpha virt. eigenvalues --   17.28143  17.29571  17.29973  17.30484  17.31643
 Alpha virt. eigenvalues --   17.32163  17.32813  17.33392  17.33769  17.35347
 Alpha virt. eigenvalues --   17.36024  17.37828  17.38200  17.41447  21.10670
 Alpha virt. eigenvalues --   21.17855  21.36498  25.57043  25.68999  25.78410
 Alpha virt. eigenvalues --   26.19518  31.74277  31.76650  31.83016  31.83845
 Alpha virt. eigenvalues --   31.88037  42.94742  43.03967  43.05050  43.09589
 Alpha virt. eigenvalues --   43.16698  61.87713  61.92628  63.17029  78.18978
 Alpha virt. eigenvalues --   78.28311  78.38887  82.23240  86.20854  86.27021
 Alpha virt. eigenvalues --   86.41822  89.21872  89.29459  89.30062  89.30416
 Alpha virt. eigenvalues --   89.30495  89.31151  89.31464  89.32034  89.32841
 Alpha virt. eigenvalues --   89.33232  89.33686  89.34205  89.34960  89.35765
 Alpha virt. eigenvalues --   89.36321  89.38240  89.39858  89.40106  89.41694
 Alpha virt. eigenvalues --   89.42019  89.42966  89.44722  89.47091  89.48801
 Alpha virt. eigenvalues --   89.50049  89.52709  89.53605  89.55025  89.56046
 Alpha virt. eigenvalues --   89.56924  89.57891  89.58554  89.59983  89.60931
 Alpha virt. eigenvalues --   89.61649  89.62394  89.63399  89.64276  89.65423
 Alpha virt. eigenvalues --   89.67060 121.90151 121.98681 122.05958 239.33443
 Alpha virt. eigenvalues --  257.33701 332.20911 332.26056 428.79559 428.84481
 Alpha virt. eigenvalues --  428.96047 431.81202 431.90954 432.02069 590.26498
 Alpha virt. eigenvalues --  590.33100 590.38698 773.01017 839.721032068.60772
 Alpha virt. eigenvalues -- 2530.086235495.40597******************************
          Condensed to atoms (all electrons):
 Mulliken charges:
               1
     1  Pt   0.052642
     2  P    1.023181
     3  C   -0.913303
     4  C    0.272153
     5  C    0.461160
     6  C   -0.144570
     7  H    0.092177
     8  C   -0.070231
     9  H    0.099974
    10  C   -0.509539
    11  H    0.141301
    12  H    0.136222
    13  H    0.151301
    14  C   -0.826027
    15  C    0.204159
    16  C    0.602771
    17  C   -0.288328
    18  H    0.101938
    19  C   -0.011679
    20  H    0.065011
    21  C   -0.558727
    22  H    0.144999
    23  H    0.146780
    24  H    0.156597
    25  C   -0.917347
    26  C    0.363909
    27  C    0.387938
    28  C    0.054085
    29  H    0.101526
    30  C   -0.294436
    31  H    0.089698
    32  C   -0.585680
    33  H    0.144681
    34  H    0.142469
    35  H    0.154263
    36  Sn   0.131536
    37  Cl  -0.470443
    38  P    1.055632
    39  C   -0.747955
    40  C    0.331877
    41  C    0.265575
    42  C   -0.066324
    43  H    0.100697
    44  C   -0.137249
    45  H    0.102737
    46  C   -0.539895
    47  H    0.147695
    48  H    0.146577
    49  H    0.149130
    50  C   -0.643401
    51  C    0.157309
    52  C    0.353310
    53  C   -0.099171
    54  H    0.087993
    55  C    0.009869
    56  H    0.067522
    57  C   -0.585542
    58  H    0.146900
    59  H    0.138969
    60  H    0.149664
    61  C   -0.610010
    62  C    0.075248
    63  C    0.398821
    64  C   -0.124578
    65  H    0.063485
    66  C    0.056150
    67  H    0.059857
    68  C   -0.526155
    69  H    0.138667
    70  H    0.137250
    71  H    0.146229
    72  Cl  -0.201759
    73  C   -0.094432
    74  H    0.041938
    75  H    0.064655
    76  Cl  -0.188238
    77  C   -0.180209
    78  H    0.111167
    79  H    0.094808
    80  C   -0.123004
    81  H    0.075267
    82  H    0.089522
    83  C   -0.353798
    84  H    0.137765
    85  H    0.143992
    86  H    0.143282
 Sum of Mulliken charges =   0.00000
 Mulliken charges with hydrogens summed into heavy atoms:
               1
     1  Pt   0.052642
     2  P    1.023181
     3  C   -0.913303
     4  C    0.364330
     5  C    0.561134
     6  C   -0.003268
     8  C    0.065991
    10  C   -0.358238
    14  C   -0.826027
    15  C    0.306098
    16  C    0.667781
    17  C   -0.143330
    19  C    0.135101
    21  C   -0.402130
    25  C   -0.917347
    26  C    0.465435
    27  C    0.477636
    28  C    0.198766
    30  C   -0.151966
    32  C   -0.431417
    36  Sn   0.131536
    37  Cl  -0.470443
    38  P    1.055632
    39  C   -0.747955
    40  C    0.432574
    41  C    0.368312
    42  C    0.081372
    44  C    0.009329
    46  C   -0.390765
    50  C   -0.643401
    51  C    0.245302
    52  C    0.420832
    53  C    0.047729
    55  C    0.148839
    57  C   -0.435878
    61  C   -0.610010
    62  C    0.138733
    63  C    0.458678
    64  C    0.014088
    66  C    0.193400
    68  C   -0.379926
    72  Cl  -0.201759
    73  C    0.012161
    76  Cl  -0.188238
    77  C    0.025766
    80  C    0.041786
    83  C    0.071241
 Electronic spatial extent (au):  <R**2>=          31129.9015
 Charge=              0.0000 electrons
 Dipole moment (field-independent basis, Debye):
    X=              4.7127    Y=             -2.4779    Z=             -0.5766  Tot=              5.3556
 Quadrupole moment (field-independent basis, Debye-Ang):
   XX=           -289.0937   YY=           -370.4267   ZZ=           -307.6055
   XY=              2.5267   XZ=              0.9106   YZ=              9.7078
 Traceless Quadrupole moment (field-independent basis, Debye-Ang):
   XX=             33.2816   YY=            -48.0514   ZZ=             14.7698
   XY=              2.5267   XZ=              0.9106   YZ=              9.7078
 Octapole moment (field-independent basis, Debye-Ang**2):
  XXX=              1.6135  YYY=            -50.8749  ZZZ=             14.2628  XYY=              0.8437
  XXY=            -11.4249  XXZ=            -43.0506  XZZ=             16.8321  YZZ=            -69.9191
  YYZ=            -16.9752  XYZ=             -1.0922
 Hexadecapole moment (field-independent basis, Debye-Ang**3):
 XXXX=         -18008.0649 YYYY=         -14401.6660 ZZZZ=          -7672.5165 XXXY=            467.0865
 XXXZ=            115.0444 YYYX=           -576.8875 YYYZ=             43.9412 ZZZX=           -160.3097
 ZZZY=             53.0931 XXYY=          -5102.3643 XXZZ=          -3978.5938 YYZZ=          -3761.6662
 XXYZ=             65.3338 YYXZ=            117.4377 ZZXY=            285.2931
 N-N= 1.295547910536D+04 E-N=-8.906541430211D+04  KE= 2.629332888952D+04
 Calculating spin-rotation constants.
 Leave Link  601 at Thu Nov 28 20:35:24 2019, MaxMem=   939524096 cpu:      1102.1
 (Enter /scr/programas/g09/l9999.exe)
 1\1\GINC-NQTCM\SP\RPBEPBE\Gen\C40H39Cl3P2Pt1Sn1\NQTCM\28-Nov-2019\0\\#
 PBEPBE/gen scf=(maxcycle=500,conver=3) NMR=GIAO Scrf=(solvent=Dichloro
 methane)\\estrutura 106\\0,1\Pt,0,0.12081,0.69038,-0.053373\P,0,2.5086
 68,0.468519,0.051437\C,0,3.393753,-1.151976,-0.109412\C,0,3.81126,-1.8
 97176,1.004737\C,0,3.674905,-1.640578,-1.397572\C,0,4.502254,-3.101348
 ,0.83391\H,0,3.607496,-1.545123,2.015558\C,0,4.374444,-2.837464,-1.564
 702\H,0,3.353034,-1.082757,-2.279537\C,0,4.791422,-3.571638,-0.449667\
 H,0,4.818209,-3.669642,1.712532\H,0,4.591051,-3.19772,-2.573072\H,0,5.
 338855,-4.509114,-0.580573\C,0,2.997805,1.082142,1.722319\C,0,3.996914
 ,2.044226,1.931535\C,0,2.315115,0.555877,2.835619\C,0,4.318938,2.45663
 2,3.22874\H,0,4.523968,2.490212,1.088154\C,0,2.641741,0.967777,4.12954
 4\H,0,1.524501,-0.184028,2.693296\C,0,3.646943,1.920603,4.330348\H,0,5
 .097836,3.206145,3.374722\H,0,2.106554,0.543891,4.982941\H,0,3.899645,
 2.248486,5.342157\C,0,3.392804,1.457786,-1.231019\C,0,4.800445,1.46499
 7,-1.270535\C,0,2.679405,2.133676,-2.235022\C,0,5.478372,2.153003,-2.2
 79445\H,0,5.379277,0.917536,-0.522785\C,0,3.36257,2.811509,-3.251167\H
 ,0,1.589053,2.132654,-2.222896\C,0,4.758611,2.828443,-3.273859\H,0,6.5
 70735,2.153272,-2.293646\H,0,2.792476,3.326208,-4.029668\H,0,5.291581,
 3.356871,-4.06854\Sn,0,-0.409515,-1.868055,-0.254202\Cl,0,0.553366,3.0
 97998,0.278396\P,0,-2.235979,1.085808,-0.032246\C,0,-2.793616,2.838666
 ,0.150753\C,0,-2.917335,3.649889,-0.989671\C,0,-3.066173,3.389082,1.41
 3894\C,0,-3.316931,4.983131,-0.869881\H,0,-2.706305,3.244148,-1.980787
 \C,0,-3.465436,4.724749,1.529533\H,0,-2.972871,2.782636,2.316107\C,0,-
 3.594721,5.523585,0.389561\H,0,-3.416107,5.598845,-1.766035\H,0,-3.679
 459,5.137722,2.519833\H,0,-3.911461,6.56526,0.483215\C,0,-2.99412,0.59
 5608,-1.644063\C,0,-4.368916,0.385263,-1.858387\C,0,-2.125649,0.545728
 ,-2.752282\C,0,-4.853305,0.091973,-3.135011\H,0,-5.080266,0.449757,-1.
 036354\C,0,-2.6142,0.277169,-4.035493\H,0,-1.058916,0.735876,-2.606369
 \C,0,-3.97826,0.041293,-4.226124\H,0,-5.923687,-0.09177,-3.274959\H,0,
 -1.915556,0.248222,-4.876406\H,0,-4.367815,-0.175529,-5.225508\C,0,-2.
 984515,0.236932,1.433747\C,0,-4.271931,-0.325564,1.495838\C,0,-2.18912
 1,0.214694,2.596875\C,0,-4.742337,-0.894904,2.681366\H,0,-4.919271,-0.
 349269,0.622568\C,0,-2.665744,-0.342645,3.784749\H,0,-1.180828,0.63668
 5,2.574584\C,0,-3.945458,-0.902708,3.83145\H,0,-5.741847,-1.3363,2.701
 484\H,0,-2.03058,-0.345568,4.675584\H,0,-4.317724,-1.345095,4.757328\C
 l,0,0.556037,-2.941353,1.732773\C,0,-2.382998,-2.825141,-0.434942\H,0,
 -2.939095,-2.525677,0.466201\H,0,-2.828072,-2.289336,-1.287993\Cl,0,0.
 669826,-3.021674,-2.123075\C,0,-2.451846,-4.339199,-0.652483\H,0,-3.49
 2263,-4.577566,-0.946225\H,0,-1.826382,-4.630679,-1.51456\C,0,-2.08930
 2,-5.195965,0.567424\H,0,-1.009818,-5.110104,0.772693\H,0,-2.594433,-4
 .780242,1.459234\C,0,-2.477163,-6.66817,0.415722\H,0,-1.991628,-7.1360
 86,-0.458109\H,0,-2.189295,-7.250016,1.306524\H,0,-3.566999,-6.778866,
 0.285521\\Version=EM64L-G09RevD.01\State=1-A\HF=-26699.9591111\RMSD=2.
 603e-04\Dipole=-1.8541374,0.9748677,-0.2268451\Quadrupole=24.7440554,-
 35.7250334,10.980978,1.8785561,-0.6770282,-7.2175407\PG=C01 [X(C40H39C
 l3P2Pt1Sn1)]\\@


     ON THE SURVIVAL OF THE FITTEST -
 "STRONG REPRESENTATIVES FROM EACH PAST ERA THRIVE TODAY,
 SUCH AS PROGRAMMING IN THE THIRTY YEAR OLD LANGUAGE KNOWN
 AS FORTRAN, AND EVEN IN THE ANCIENT SCRIPT KNOWN AS DIRECT
 MACHINE CODE. SOME PEOPLE MIGHT LOOK ON SUCH RELICS AS LIVING
 FOSSILS; OTHERS WOULD POINT OUT THAT EVEN A VERY OLD SPECIES
 MIGHT STILL BE FILLING A PARTICULAR ECOLOGICAL NICHE."
     -- ALAN KAY, SCI.AM. SEPTEMBER 1984
 Job cpu time:       1 days 15 hours 33 minutes  0.9 seconds.
 File lengths (MBytes):  RWF=   2417 Int=      0 D2E=      0 Chk=    171 Scr=      1
 Normal termination of Gaussian 09 at Thu Nov 28 20:35:24 2019.
