 Entering Gaussian System, Link 0=g09
 Input=estrutura59.com
 Output=estrutura59.log
 Initial command:
 /scr/programas/g09/l1.exe "/scr/nqtcm/Gau-14429.inp" -scrdir="/scr/nqtcm/"
 Entering Link 1 = /scr/programas/g09/l1.exe PID=     14432.
  
 Copyright (c) 1988,1990,1992,1993,1995,1998,2003,2009,2013,
            Gaussian, Inc.  All Rights Reserved.
  
 This is part of the Gaussian(R) 09 program.  It is based on
 the Gaussian(R) 03 system (copyright 2003, Gaussian, Inc.),
 the Gaussian(R) 98 system (copyright 1998, Gaussian, Inc.),
 the Gaussian(R) 94 system (copyright 1995, Gaussian, Inc.),
 the Gaussian 92(TM) system (copyright 1992, Gaussian, Inc.),
 the Gaussian 90(TM) system (copyright 1990, Gaussian, Inc.),
 the Gaussian 88(TM) system (copyright 1988, Gaussian, Inc.),
 the Gaussian 86(TM) system (copyright 1986, Carnegie Mellon
 University), and the Gaussian 82(TM) system (copyright 1983,
 Carnegie Mellon University). Gaussian is a federally registered
 trademark of Gaussian, Inc.
  
 This software contains proprietary and confidential information,
 including trade secrets, belonging to Gaussian, Inc.
  
 This software is provided under written license and may be
 used, copied, transmitted, or stored only in accord with that
 written license.
  
 The following legend is applicable only to US Government
 contracts under FAR:
  
                    RESTRICTED RIGHTS LEGEND
  
 Use, reproduction and disclosure by the US Government is
 subject to restrictions as set forth in subparagraphs (a)
 and (c) of the Commercial Computer Software - Restricted
 Rights clause in FAR 52.227-19.
  
 Gaussian, Inc.
 340 Quinnipiac St., Bldg. 40, Wallingford CT 06492
  
  
 ---------------------------------------------------------------
 Warning -- This program may not be used in any manner that
 competes with the business of Gaussian, Inc. or will provide
 assistance to any competitor of Gaussian, Inc.  The licensee
 of this program is prohibited from giving any competitor of
 Gaussian, Inc. access to this program.  By using this program,
 the user acknowledges that Gaussian, Inc. is engaged in the
 business of creating and licensing software in the field of
 computational chemistry and represents and warrants to the
 licensee that it is not a competitor of Gaussian, Inc. and that
 it will not use this program in any manner prohibited above.
 ---------------------------------------------------------------
  

 Cite this work as:
 Gaussian 09, Revision D.01,
 M. J. Frisch, G. W. Trucks, H. B. Schlegel, G. E. Scuseria, 
 M. A. Robb, J. R. Cheeseman, G. Scalmani, V. Barone, B. Mennucci, 
 G. A. Petersson, H. Nakatsuji, M. Caricato, X. Li, H. P. Hratchian, 
 A. F. Izmaylov, J. Bloino, G. Zheng, J. L. Sonnenberg, M. Hada, 
 M. Ehara, K. Toyota, R. Fukuda, J. Hasegawa, M. Ishida, T. Nakajima, 
 Y. Honda, O. Kitao, H. Nakai, T. Vreven, J. A. Montgomery, Jr., 
 J. E. Peralta, F. Ogliaro, M. Bearpark, J. J. Heyd, E. Brothers, 
 K. N. Kudin, V. N. Staroverov, T. Keith, R. Kobayashi, J. Normand, 
 K. Raghavachari, A. Rendell, J. C. Burant, S. S. Iyengar, J. Tomasi, 
 M. Cossi, N. Rega, J. M. Millam, M. Klene, J. E. Knox, J. B. Cross, 
 V. Bakken, C. Adamo, J. Jaramillo, R. Gomperts, R. E. Stratmann, 
 O. Yazyev, A. J. Austin, R. Cammi, C. Pomelli, J. W. Ochterski, 
 R. L. Martin, K. Morokuma, V. G. Zakrzewski, G. A. Voth, 
 P. Salvador, J. J. Dannenberg, S. Dapprich, A. D. Daniels, 
 O. Farkas, J. B. Foresman, J. V. Ortiz, J. Cioslowski, 
 and D. J. Fox, Gaussian, Inc., Wallingford CT, 2013.
 
 ******************************************
 Gaussian 09:  EM64L-G09RevD.01 24-Apr-2013
                 2-Nov-2019 
 ******************************************
 %mem=7Gb
 %nproc=4
 Will use up to    4 processors via shared memory.
 ----------------------------------------------------------------------
 #PBEPBE/gen scf=(maxcycle=500,conver=4) NMR=GIAO Scrf=(solvent=Dichlor
 omethane)
 ----------------------------------------------------------------------
 1/38=1/1;
 2/12=2,17=6,18=5,40=1/2;
 3/5=7,11=2,16=1,25=1,30=1,70=2201,72=9,74=1009/1,2,8,3;
 4//1;
 5/5=2,6=4,7=500,38=5,53=9/2;
 8/6=1,10=90,11=11/1;
 10/13=100,45=16/2;
 6/7=2,8=2,9=2,10=2,28=1/1;
 99/9=1/99;
 Leave Link    1 at Sat Nov  2 09:37:22 2019, MaxMem=   939524096 cpu:         0.2
 (Enter /scr/programas/g09/l101.exe)
 ------------
 estrutura 58
 ------------
 Symbolic Z-matrix:
 Charge =  0 Multiplicity = 1
 P                    -1.89214  -1.44321   0.47017 
 P                     1.89302   1.44273  -0.46979 
 C                    -3.52476  -0.73342   0.12881 
 C                    -4.10234  -1.36005  -0.92352 
 C                    -3.29044  -2.48754  -1.47269 
 C                    -2.12331  -2.69692  -0.81499 
 C                    -5.42666  -0.98579  -1.51677 
 C                    -3.76467  -3.29048  -2.64692 
 C                     2.1177    2.70019   0.81294 
 C                     3.28214   2.49375   1.47617 
 C                     4.09719   1.3651    0.93396 
 C                     3.52503   0.73546  -0.11956 
 C                     3.75097   3.30126   2.64946 
 C                     5.41842   0.99292   1.53536 
 H                    -3.97263   0.08615   0.68845 
 H                    -1.39002  -3.46219  -1.06549 
 H                    -6.11726  -1.84495  -1.5283 
 H                    -5.89737  -0.1649   -0.95959 
 H                    -5.30393  -0.6625   -2.56439 
 H                    -3.91133  -2.64634  -3.53001 
 H                    -3.04808  -4.08026  -2.90922 
 H                    -4.73933  -3.76099  -2.43576 
 H                     1.38312   3.46601   1.05793 
 H                     3.9758   -0.08561  -0.67471 
 H                     4.72443   3.7749    2.4389 
 H                     3.03086   4.08919   2.90814 
 H                     3.89826   2.65994   3.53465 
 H                     6.10891   1.85214   1.54777 
 H                     5.28993   0.6732    2.58343 
 H                     5.89215   0.17013   0.98352 
 Pt                    0.00066  -0.00036  -0.00111 
 C                     1.98028   2.20205  -2.21921 
 C                    -1.97501  -2.20615   2.21838 
 Sn                   -1.64819   2.11707   0.19568 
 Cl                   -3.11988   2.42288  -1.70194 
 Cl                   -0.94497   4.43413   0.4558 
 Cl                   -3.23147   2.23704   2.04004 
 C                    -1.97026  -1.0503    3.23297 
 H                    -1.05272  -0.44612   3.15491 
 H                    -2.83159  -0.37873   3.11253 
 H                    -2.0097   -1.47337   4.25047 
 C                    -3.27215  -3.02575   2.33437 
 H                    -3.31247  -3.47942   3.33852 
 H                    -4.16914  -2.40255   2.21082 
 H                    -3.3094   -3.84192   1.59734 
 C                    -0.76274  -3.11497   2.46326 
 H                    -0.69043  -3.93269   1.73319 
 H                     0.18514  -2.55646   2.46333 
 H                    -0.86351  -3.56711   3.46385 
 C                     1.99128   1.04412  -3.2314 
 H                     2.85748   0.38029  -3.10464 
 H                     1.07843   0.43249  -3.15763 
 H                     2.03299   1.46565  -4.24946 
 C                     0.76127   3.09941  -2.4737 
 H                    -0.18109   2.53136  -2.47892 
 H                     0.67616   3.91777  -1.74559 
 H                     0.86444   3.55097  -3.47431 
 C                     3.27094   3.03265  -2.32921 
 H                     3.31756   3.47749  -3.33707 
 H                     3.29237   3.85574  -1.59912 
 H                     4.17263   2.41919  -2.1903 
 Sn                    1.64887  -2.11783  -0.19852 
 Cl                    3.11079  -2.42829   1.70617 
 Cl                    3.24491  -2.23598  -2.03158 
 Cl                    0.94203  -4.43191  -0.4724 
 
 NAtoms=     65 NQM=       65 NQMF=       0 NMMI=      0 NMMIF=      0
                NMic=       0 NMicF=      0.
                    Isotopes and Nuclear Properties:
 (Nuclear quadrupole moments (NQMom) in fm**2, nuclear magnetic moments (NMagM)
  in nuclear magnetons)

  Atom         1           2           3           4           5           6           7           8           9          10
 IAtWgt=          31          31          12          12          12          12          12          12          12          12
 AtmWgt=  30.9737634  30.9737634  12.0000000  12.0000000  12.0000000  12.0000000  12.0000000  12.0000000  12.0000000  12.0000000
 NucSpn=           1           1           0           0           0           0           0           0           0           0
 AtZEff=   0.0000000   0.0000000   0.0000000   0.0000000   0.0000000   0.0000000   0.0000000   0.0000000   0.0000000   0.0000000
 NQMom=    0.0000000   0.0000000   0.0000000   0.0000000   0.0000000   0.0000000   0.0000000   0.0000000   0.0000000   0.0000000
 NMagM=    1.1316000   1.1316000   0.0000000   0.0000000   0.0000000   0.0000000   0.0000000   0.0000000   0.0000000   0.0000000
 AtZNuc=  15.0000000  15.0000000   6.0000000   6.0000000   6.0000000   6.0000000   6.0000000   6.0000000   6.0000000   6.0000000

  Atom        11          12          13          14          15          16          17          18          19          20
 IAtWgt=          12          12          12          12           1           1           1           1           1           1
 AtmWgt=  12.0000000  12.0000000  12.0000000  12.0000000   1.0078250   1.0078250   1.0078250   1.0078250   1.0078250   1.0078250
 NucSpn=           0           0           0           0           1           1           1           1           1           1
 AtZEff=   0.0000000   0.0000000   0.0000000   0.0000000   0.0000000   0.0000000   0.0000000   0.0000000   0.0000000   0.0000000
 NQMom=    0.0000000   0.0000000   0.0000000   0.0000000   0.0000000   0.0000000   0.0000000   0.0000000   0.0000000   0.0000000
 NMagM=    0.0000000   0.0000000   0.0000000   0.0000000   2.7928460   2.7928460   2.7928460   2.7928460   2.7928460   2.7928460
 AtZNuc=   6.0000000   6.0000000   6.0000000   6.0000000   1.0000000   1.0000000   1.0000000   1.0000000   1.0000000   1.0000000

  Atom        21          22          23          24          25          26          27          28          29          30
 IAtWgt=           1           1           1           1           1           1           1           1           1           1
 AtmWgt=   1.0078250   1.0078250   1.0078250   1.0078250   1.0078250   1.0078250   1.0078250   1.0078250   1.0078250   1.0078250
 NucSpn=           1           1           1           1           1           1           1           1           1           1
 AtZEff=   0.0000000   0.0000000   0.0000000   0.0000000   0.0000000   0.0000000   0.0000000   0.0000000   0.0000000   0.0000000
 NQMom=    0.0000000   0.0000000   0.0000000   0.0000000   0.0000000   0.0000000   0.0000000   0.0000000   0.0000000   0.0000000
 NMagM=    2.7928460   2.7928460   2.7928460   2.7928460   2.7928460   2.7928460   2.7928460   2.7928460   2.7928460   2.7928460
 AtZNuc=   1.0000000   1.0000000   1.0000000   1.0000000   1.0000000   1.0000000   1.0000000   1.0000000   1.0000000   1.0000000

  Atom        31          32          33          34          35          36          37          38          39          40
 IAtWgt=         195          12          12         118          35          35          35          12           1           1
 AtmWgt= 194.9648000  12.0000000  12.0000000 117.9018000  34.9688527  34.9688527  34.9688527  12.0000000   1.0078250   1.0078250
 NucSpn=           1           0           0           0           3           3           3           0           1           1
 AtZEff=   0.0000000   0.0000000   0.0000000   0.0000000   0.0000000   0.0000000   0.0000000   0.0000000   0.0000000   0.0000000
 NQMom=    0.0000000   0.0000000   0.0000000   0.0000000  -8.1650000  -8.1650000  -8.1650000   0.0000000   0.0000000   0.0000000
 NMagM=    0.6095000   0.0000000   0.0000000   0.0000000   0.8218740   0.8218740   0.8218740   0.0000000   2.7928460   2.7928460
 AtZNuc=  78.0000000   6.0000000   6.0000000  50.0000000  17.0000000  17.0000000  17.0000000   6.0000000   1.0000000   1.0000000

  Atom        41          42          43          44          45          46          47          48          49          50
 IAtWgt=           1          12           1           1           1          12           1           1           1          12
 AtmWgt=   1.0078250  12.0000000   1.0078250   1.0078250   1.0078250  12.0000000   1.0078250   1.0078250   1.0078250  12.0000000
 NucSpn=           1           0           1           1           1           0           1           1           1           0
 AtZEff=   0.0000000   0.0000000   0.0000000   0.0000000   0.0000000   0.0000000   0.0000000   0.0000000   0.0000000   0.0000000
 NQMom=    0.0000000   0.0000000   0.0000000   0.0000000   0.0000000   0.0000000   0.0000000   0.0000000   0.0000000   0.0000000
 NMagM=    2.7928460   0.0000000   2.7928460   2.7928460   2.7928460   0.0000000   2.7928460   2.7928460   2.7928460   0.0000000
 AtZNuc=   1.0000000   6.0000000   1.0000000   1.0000000   1.0000000   6.0000000   1.0000000   1.0000000   1.0000000   6.0000000

  Atom        51          52          53          54          55          56          57          58          59          60
 IAtWgt=           1           1           1          12           1           1           1          12           1           1
 AtmWgt=   1.0078250   1.0078250   1.0078250  12.0000000   1.0078250   1.0078250   1.0078250  12.0000000   1.0078250   1.0078250
 NucSpn=           1           1           1           0           1           1           1           0           1           1
 AtZEff=   0.0000000   0.0000000   0.0000000   0.0000000   0.0000000   0.0000000   0.0000000   0.0000000   0.0000000   0.0000000
 NQMom=    0.0000000   0.0000000   0.0000000   0.0000000   0.0000000   0.0000000   0.0000000   0.0000000   0.0000000   0.0000000
 NMagM=    2.7928460   2.7928460   2.7928460   0.0000000   2.7928460   2.7928460   2.7928460   0.0000000   2.7928460   2.7928460
 AtZNuc=   1.0000000   1.0000000   1.0000000   6.0000000   1.0000000   1.0000000   1.0000000   6.0000000   1.0000000   1.0000000

  Atom        61          62          63          64          65
 IAtWgt=           1         118          35          35          35
 AtmWgt=   1.0078250 117.9018000  34.9688527  34.9688527  34.9688527
 NucSpn=           1           0           3           3           3
 AtZEff=   0.0000000   0.0000000   0.0000000   0.0000000   0.0000000
 NQMom=    0.0000000   0.0000000  -8.1650000  -8.1650000  -8.1650000
 NMagM=    2.7928460   0.0000000   0.8218740   0.8218740   0.8218740
 AtZNuc=   1.0000000  50.0000000  17.0000000  17.0000000  17.0000000
 Leave Link  101 at Sat Nov  2 09:37:22 2019, MaxMem=   939524096 cpu:         0.6
 (Enter /scr/programas/g09/l202.exe)
 Stoichiometry    C20H34Cl6P2PtSn2
 Framework group  C1[X(C20H34Cl6P2PtSn2)]
 Deg. of freedom   189
 Full point group                 C1      NOp   1
 Largest Abelian subgroup         C1      NOp   1
 Largest concise Abelian subgroup C1      NOp   1
                         Standard orientation:                         
 ---------------------------------------------------------------------
 Center     Atomic      Atomic             Coordinates (Angstroms)
 Number     Number       Type             X           Y           Z
 ---------------------------------------------------------------------
      1         15           0       -1.892136   -1.443207    0.470169
      2         15           0        1.893019    1.442729   -0.469792
      3          6           0       -3.524758   -0.733424    0.128805
      4          6           0       -4.102343   -1.360052   -0.923523
      5          6           0       -3.290443   -2.487536   -1.472688
      6          6           0       -2.123311   -2.696924   -0.814987
      7          6           0       -5.426660   -0.985795   -1.516766
      8          6           0       -3.764669   -3.290482   -2.646921
      9          6           0        2.117696    2.700188    0.812944
     10          6           0        3.282145    2.493746    1.476173
     11          6           0        4.097187    1.365103    0.933957
     12          6           0        3.525031    0.735456   -0.119555
     13          6           0        3.750968    3.301259    2.649455
     14          6           0        5.418418    0.992919    1.535361
     15          1           0       -3.972633    0.086151    0.688446
     16          1           0       -1.390017   -3.462190   -1.065494
     17          1           0       -6.117257   -1.844950   -1.528296
     18          1           0       -5.897372   -0.164896   -0.959586
     19          1           0       -5.303934   -0.662500   -2.564394
     20          1           0       -3.911334   -2.646339   -3.530013
     21          1           0       -3.048082   -4.080259   -2.909223
     22          1           0       -4.739329   -3.760990   -2.435765
     23          1           0        1.383122    3.466010    1.057925
     24          1           0        3.975803   -0.085606   -0.674711
     25          1           0        4.724425    3.774899    2.438900
     26          1           0        3.030859    4.089192    2.908136
     27          1           0        3.898257    2.659935    3.534645
     28          1           0        6.108908    1.852142    1.547774
     29          1           0        5.289931    0.673201    2.583425
     30          1           0        5.892146    0.170131    0.983524
     31         78           0        0.000656   -0.000358   -0.001107
     32          6           0        1.980275    2.202048   -2.219214
     33          6           0       -1.975009   -2.206151    2.218384
     34         50           0       -1.648194    2.117068    0.195680
     35         17           0       -3.119882    2.422878   -1.701939
     36         17           0       -0.944971    4.434129    0.455796
     37         17           0       -3.231471    2.237043    2.040035
     38          6           0       -1.970256   -1.050303    3.232971
     39          1           0       -1.052724   -0.446118    3.154908
     40          1           0       -2.831593   -0.378726    3.112525
     41          1           0       -2.009699   -1.473371    4.250468
     42          6           0       -3.272151   -3.025754    2.334371
     43          1           0       -3.312472   -3.479416    3.338515
     44          1           0       -4.169138   -2.402552    2.210824
     45          1           0       -3.309403   -3.841919    1.597340
     46          6           0       -0.762744   -3.114966    2.463260
     47          1           0       -0.690428   -3.932692    1.733191
     48          1           0        0.185142   -2.556460    2.463325
     49          1           0       -0.863505   -3.567105    3.463845
     50          6           0        1.991276    1.044117   -3.231404
     51          1           0        2.857482    0.380292   -3.104635
     52          1           0        1.078426    0.432490   -3.157633
     53          1           0        2.032994    1.465645   -4.249458
     54          6           0        0.761267    3.099414   -2.473696
     55          1           0       -0.181091    2.531364   -2.478924
     56          1           0        0.676159    3.917767   -1.745585
     57          1           0        0.864442    3.550966   -3.474310
     58          6           0        3.270938    3.032649   -2.329214
     59          1           0        3.317562    3.477493   -3.337072
     60          1           0        3.292366    3.855743   -1.599120
     61          1           0        4.172625    2.419194   -2.190303
     62         50           0        1.648873   -2.117833   -0.198523
     63         17           0        3.110789   -2.428286    1.706170
     64         17           0        3.244908   -2.235985   -2.031576
     65         17           0        0.942028   -4.431910   -0.472404
 ---------------------------------------------------------------------
 Rotational constants (GHZ):      0.0793962      0.0696013      0.0496325
 Leave Link  202 at Sat Nov  2 09:37:22 2019, MaxMem=   939524096 cpu:         0.1
 (Enter /scr/programas/g09/l301.exe)
 General basis read from cards:  (5D, 7F)
 Centers:      15     16     17     18     19     20     21     22     23     24
 Centers:      25     26     27     28     29     30     39     40     41     43
 Centers:      44     45     47     48     49     51     52     53     55     56
 Centers:      57     59     60     61
 S 5 1.00
     Exponent=  2.8295215633D+02 Coefficients=  4.3000000000D-04
     Exponent=  8.7062201949D+01 Coefficients=  5.1000000000D-04
     Exponent=  2.6788369830D+01 Coefficients=  6.1600000000D-03
     Exponent=  8.2425753324D+00 Coefficients=  1.3030000000D-02
     Exponent=  2.5361770254D+00 Coefficients=  9.9490000000D-02
 S 1 1.00
     Exponent=  7.8036216165D-01 Coefficients=  1.0000000000D+00
 S 1 1.00
     Exponent=  2.4011143435D-01 Coefficients=  1.0000000000D+00
 P 1 1.00
     Exponent=  8.8150000000D-01 Coefficients=  1.0000000000D+00
 P 1 1.00
     Exponent=  1.7989200000D-01 Coefficients=  1.0000000000D+00
 ****
 Centers:       3      4      5      6      7      8      9     10     11     12
 Centers:      13     14     32     33     38     42     46     50     54     58
 S 6 1.00
     Exponent=  8.8461235339D+03 Coefficients=  5.3000000000D-04
     Exponent=  2.9487078446D+03 Coefficients=  7.7000000000D-04
     Exponent=  9.8290261488D+02 Coefficients=  4.0500000000D-03
     Exponent=  3.2763420496D+02 Coefficients=  1.4030000000D-02
     Exponent=  1.0921140165D+02 Coefficients=  5.3450000000D-02
     Exponent=  3.6403800551D+01 Coefficients=  1.7027000000D-01
 S 1 1.00
     Exponent=  1.2134600184D+01 Coefficients=  1.0000000000D+00
 S 1 1.00
     Exponent=  4.0448667279D+00 Coefficients=  1.0000000000D+00
 S 1 1.00
     Exponent=  1.3482889093D+00 Coefficients=  1.0000000000D+00
 S 1 1.00
     Exponent=  4.4942963643D-01 Coefficients=  1.0000000000D+00
 S 1 1.00
     Exponent=  1.4980987881D-01 Coefficients=  1.0000000000D+00
 P 4 1.00
     Exponent=  3.7294093393D+01 Coefficients=  3.9600000000D-03
     Exponent=  1.1475105659D+01 Coefficients=  1.8890000000D-02
     Exponent=  3.5308017414D+00 Coefficients=  9.4610000000D-02
     Exponent=  1.0864005358D+00 Coefficients=  3.1889000000D-01
 P 1 1.00
     Exponent=  3.3427708794D-01 Coefficients=  1.0000000000D+00
 P 1 1.00
     Exponent=  1.0285448860D-01 Coefficients=  1.0000000000D+00
 D 1 1.00
     Exponent=  4.7750000000D-01 Coefficients=  1.0000000000D+00
 D 1 1.00
     Exponent=  1.1998000000D-01 Coefficients=  1.0000000000D+00
 ****
 Centers:       1      2
 S 7 1.00
     Exponent=  5.9538004301D+04 Coefficients=  9.5000000000D-04
     Exponent=  2.1650183382D+04 Coefficients=  6.1000000000D-04
     Exponent=  7.8727939572D+03 Coefficients=  3.7500000000D-03
     Exponent=  2.8628341663D+03 Coefficients=  9.6300000000D-03
     Exponent=  1.0410306059D+03 Coefficients=  3.2430000000D-02
     Exponent=  3.7855658397D+02 Coefficients=  9.9500000000D-02
     Exponent=  1.3765693962D+02 Coefficients=  2.6570000000D-01
 S 1 1.00
     Exponent=  5.0057068954D+01 Coefficients=  1.0000000000D+00
 S 1 1.00
     Exponent=  1.8202570529D+01 Coefficients=  1.0000000000D+00
 S 1 1.00
     Exponent=  6.6191165560D+00 Coefficients=  1.0000000000D+00
 S 1 1.00
     Exponent=  2.4069514749D+00 Coefficients=  1.0000000000D+00
 S 1 1.00
     Exponent=  8.7525508178D-01 Coefficients=  1.0000000000D+00
 S 1 1.00
     Exponent=  3.1827457519D-01 Coefficients=  1.0000000000D+00
 S 1 1.00
     Exponent=  1.1573620916D-01 Coefficients=  1.0000000000D+00
 S 1 1.00
     Exponent=  4.2085894240D-02 Coefficients=  1.0000000000D+00
 P 5 1.00
     Exponent=  4.8799672315D+02 Coefficients=  2.1600000000D-03
     Exponent=  1.6266557438D+02 Coefficients=  9.7900000000D-03
     Exponent=  5.4221858128D+01 Coefficients=  5.4850000000D-02
     Exponent=  1.8073952709D+01 Coefficients=  2.1770000000D-01
     Exponent=  6.0246509031D+00 Coefficients=  4.8978000000D-01
 P 1 1.00
     Exponent=  2.0082169677D+00 Coefficients=  1.0000000000D+00
 P 1 1.00
     Exponent=  6.6940565590D-01 Coefficients=  1.0000000000D+00
 P 1 1.00
     Exponent=  2.2313521863D-01 Coefficients=  1.0000000000D+00
 P 1 1.00
     Exponent=  7.4378406211D-02 Coefficients=  1.0000000000D+00
 P 1 1.00
     Exponent=  2.4792802070D-02 Coefficients=  1.0000000000D+00
 D 1 1.00
     Exponent=  3.5395000000D-01 Coefficients=  1.0000000000D+00
 D 1 1.00
     Exponent=  8.9098000000D-02 Coefficients=  1.0000000000D+00
 ****
 Centers:      35     36     37     63     64     65
 S 7 1.00
     Exponent=  7.7142817164D+04 Coefficients=  1.0600000000D-03
     Exponent=  2.8051933514D+04 Coefficients=  6.4000000000D-04
     Exponent=  1.0200703096D+04 Coefficients=  3.9600000000D-03
     Exponent=  3.7093465804D+03 Coefficients=  9.8300000000D-03
     Exponent=  1.3488533020D+03 Coefficients=  3.2690000000D-02
     Exponent=  4.9049210981D+02 Coefficients=  9.9520000000D-02
     Exponent=  1.7836076720D+02 Coefficients=  2.6555000000D-01
 S 1 1.00
     Exponent=  6.4858460801D+01 Coefficients=  1.0000000000D+00
 S 1 1.00
     Exponent=  2.3584894837D+01 Coefficients=  1.0000000000D+00
 S 1 1.00
     Exponent=  8.5763253951D+00 Coefficients=  1.0000000000D+00
 S 1 1.00
     Exponent=  3.1186637801D+00 Coefficients=  1.0000000000D+00
 S 1 1.00
     Exponent=  1.1340595564D+00 Coefficients=  1.0000000000D+00
 S 1 1.00
     Exponent=  4.1238529323D-01 Coefficients=  1.0000000000D+00
 S 1 1.00
     Exponent=  1.4995828845D-01 Coefficients=  1.0000000000D+00
 S 1 1.00
     Exponent=  5.4530286708D-02 Coefficients=  1.0000000000D+00
 P 5 1.00
     Exponent=  6.9498536057D+02 Coefficients=  2.0000000000D-03
     Exponent=  2.3166178686D+02 Coefficients=  8.9500000000D-03
     Exponent=  7.7220595619D+01 Coefficients=  5.1130000000D-02
     Exponent=  2.5740198540D+01 Coefficients=  2.1011000000D-01
     Exponent=  8.5800661799D+00 Coefficients=  4.9738000000D-01
 P 1 1.00
     Exponent=  2.8600220600D+00 Coefficients=  1.0000000000D+00
 P 1 1.00
     Exponent=  9.5334068665D-01 Coefficients=  1.0000000000D+00
 P 1 1.00
     Exponent=  3.1778022888D-01 Coefficients=  1.0000000000D+00
 P 1 1.00
     Exponent=  1.0592674296D-01 Coefficients=  1.0000000000D+00
 P 1 1.00
     Exponent=  3.5308914320D-02 Coefficients=  1.0000000000D+00
 D 1 1.00
     Exponent=  5.5696000000D-01 Coefficients=  1.0000000000D+00
 D 1 1.00
     Exponent=  1.5619100000D-01 Coefficients=  1.0000000000D+00
 ****
 Centers:      34     62
 S 8 1.00
     Exponent=  7.5448214551D+05 Coefficients=  4.4300000000D-03
     Exponent=  3.3532539800D+05 Coefficients=  1.9800000000D-03
     Exponent=  1.4903351022D+05 Coefficients=  9.0500000000D-03
     Exponent=  6.6237115655D+04 Coefficients=  4.8700000000D-03
     Exponent=  2.9438718069D+04 Coefficients=  2.0770000000D-02
     Exponent=  1.3083874697D+04 Coefficients=  3.2900000000D-02
     Exponent=  5.8150554210D+03 Coefficients=  7.7010000000D-02
     Exponent=  2.5844690760D+03 Coefficients=  1.5160000000D-01
 S 1 1.00
     Exponent=  1.1486529227D+03 Coefficients=  1.0000000000D+00
 S 1 1.00
     Exponent=  5.1051241008D+02 Coefficients=  1.0000000000D+00
 S 1 1.00
     Exponent=  2.2689440448D+02 Coefficients=  1.0000000000D+00
 S 1 1.00
     Exponent=  1.0084195755D+02 Coefficients=  1.0000000000D+00
 S 1 1.00
     Exponent=  4.4818647798D+01 Coefficients=  1.0000000000D+00
 S 1 1.00
     Exponent=  1.9919399021D+01 Coefficients=  1.0000000000D+00
 S 1 1.00
     Exponent=  8.8530662317D+00 Coefficients=  1.0000000000D+00
 S 1 1.00
     Exponent=  3.9346961030D+00 Coefficients=  1.0000000000D+00
 S 1 1.00
     Exponent=  1.7487538235D+00 Coefficients=  1.0000000000D+00
 S 1 1.00
     Exponent=  7.7722392158D-01 Coefficients=  1.0000000000D+00
 S 1 1.00
     Exponent=  3.4543285403D-01 Coefficients=  1.0000000000D+00
 S 1 1.00
     Exponent=  1.5352571290D-01 Coefficients=  1.0000000000D+00
 S 1 1.00
     Exponent=  6.8233650180D-02 Coefficients=  1.0000000000D+00
 S 1 1.00
     Exponent=  1.3478251887D-02 Coefficients=  1.0000000000D+00
 P 5 1.00
     Exponent=  1.0090658304D+04 Coefficients=  2.7500000000D-03
     Exponent=  4.0362633217D+03 Coefficients=  4.1800000000D-03
     Exponent=  1.6145053287D+03 Coefficients=  2.0890000000D-02
     Exponent=  6.4580213147D+02 Coefficients=  7.1370000000D-02
     Exponent=  2.5832085259D+02 Coefficients=  2.2613000000D-01
 P 1 1.00
     Exponent=  1.0332834104D+02 Coefficients=  1.0000000000D+00
 P 1 1.00
     Exponent=  4.1331336414D+01 Coefficients=  1.0000000000D+00
 P 1 1.00
     Exponent=  1.6532534566D+01 Coefficients=  1.0000000000D+00
 P 1 1.00
     Exponent=  6.6130138263D+00 Coefficients=  1.0000000000D+00
 P 1 1.00
     Exponent=  2.6452055305D+00 Coefficients=  1.0000000000D+00
 P 1 1.00
     Exponent=  1.0580822122D+00 Coefficients=  1.0000000000D+00
 P 1 1.00
     Exponent=  4.2323288488D-01 Coefficients=  1.0000000000D+00
 P 1 1.00
     Exponent=  1.6929315395D-01 Coefficients=  1.0000000000D+00
 P 1 1.00
     Exponent=  6.7717261581D-02 Coefficients=  1.0000000000D+00
 P 1 1.00
     Exponent=  2.7086904632D-02 Coefficients=  1.0000000000D+00
 P 1 1.00
     Exponent=  1.0834761853D-02 Coefficients=  1.0000000000D+00
 D 4 1.00
     Exponent=  5.5430250651D+02 Coefficients=  4.3700000000D-03
     Exponent=  2.0156454782D+02 Coefficients=  2.5110000000D-02
     Exponent=  7.3296199207D+01 Coefficients=  1.3316000000D-01
     Exponent=  2.6653163348D+01 Coefficients=  3.8900000000D-01
 D 1 1.00
     Exponent=  9.6920593993D+00 Coefficients=  1.0000000000D+00
 D 1 1.00
     Exponent=  3.5243852361D+00 Coefficients=  1.0000000000D+00
 D 1 1.00
     Exponent=  1.2815946313D+00 Coefficients=  1.0000000000D+00
 D 1 1.00
     Exponent=  4.6603441139D-01 Coefficients=  1.0000000000D+00
 D 1 1.00
     Exponent=  1.6946705869D-01 Coefficients=  1.0000000000D+00
 F 1 1.00
     Exponent=  1.3140000000D+00 Coefficients=  1.0000000000D+00
 F 1 1.00
     Exponent=  1.9993000000D-01 Coefficients=  1.0000000000D+00
 ****
 Centers:      31
 S 9 1.00
     Exponent=  2.1644816090D+06 Coefficients=  1.2320000000D-02
     Exponent=  1.0822408045D+06 Coefficients=  1.2970000000D-02
     Exponent=  5.4112040224D+05 Coefficients=  2.6370000000D-02
     Exponent=  2.7056020112D+05 Coefficients=  9.0400000000D-03
     Exponent=  1.3528010056D+05 Coefficients=  3.4980000000D-02
     Exponent=  6.7640050280D+04 Coefficients=  1.2220000000D-02
     Exponent=  3.3820025140D+04 Coefficients=  6.0520000000D-02
     Exponent=  1.6910012570D+04 Coefficients=  6.4930000000D-02
     Exponent=  8.4550062850D+03 Coefficients=  1.3819000000D-01
 S 1 1.00
     Exponent=  4.2275031425D+03 Coefficients=  1.0000000000D+00
 S 1 1.00
     Exponent=  2.1137515713D+03 Coefficients=  1.0000000000D+00
 S 1 1.00
     Exponent=  1.0568757856D+03 Coefficients=  1.0000000000D+00
 S 1 1.00
     Exponent=  5.2843789281D+02 Coefficients=  1.0000000000D+00
 S 1 1.00
     Exponent=  2.6421894641D+02 Coefficients=  1.0000000000D+00
 S 1 1.00
     Exponent=  1.3210947320D+02 Coefficients=  1.0000000000D+00
 S 1 1.00
     Exponent=  6.6054736602D+01 Coefficients=  1.0000000000D+00
 S 1 1.00
     Exponent=  3.3027368301D+01 Coefficients=  1.0000000000D+00
 S 1 1.00
     Exponent=  1.6513684150D+01 Coefficients=  1.0000000000D+00
 S 1 1.00
     Exponent=  8.2568420752D+00 Coefficients=  1.0000000000D+00
 S 1 1.00
     Exponent=  4.1284210376D+00 Coefficients=  1.0000000000D+00
 S 1 1.00
     Exponent=  2.0642105188D+00 Coefficients=  1.0000000000D+00
 S 1 1.00
     Exponent=  1.0321052594D+00 Coefficients=  1.0000000000D+00
 S 1 1.00
     Exponent=  5.1605262970D-01 Coefficients=  1.0000000000D+00
 S 1 1.00
     Exponent=  2.5802631485D-01 Coefficients=  1.0000000000D+00
 S 1 1.00
     Exponent=  1.2901315743D-01 Coefficients=  1.0000000000D+00
 S 1 1.00
     Exponent=  6.4506578713D-02 Coefficients=  1.0000000000D+00
 P 7 1.00
     Exponent=  3.2357915258D+04 Coefficients=  5.0200000000D-03
     Exponent=  1.4381295670D+04 Coefficients=  2.0200000000D-03
     Exponent=  6.3916869645D+03 Coefficients=  1.8070000000D-02
     Exponent=  2.8407497620D+03 Coefficients=  3.6620000000D-02
     Exponent=  1.2625554498D+03 Coefficients=  1.1172000000D-01
     Exponent=  5.6113575545D+02 Coefficients=  2.5586000000D-01
     Exponent=  2.4939366909D+02 Coefficients=  4.2608000000D-01
 P 1 1.00
     Exponent=  1.1084163071D+02 Coefficients=  1.0000000000D+00
 P 1 1.00
     Exponent=  4.9262946981D+01 Coefficients=  1.0000000000D+00
 P 1 1.00
     Exponent=  2.1894643103D+01 Coefficients=  1.0000000000D+00
 P 1 1.00
     Exponent=  9.7309524900D+00 Coefficients=  1.0000000000D+00
 P 1 1.00
     Exponent=  4.3248677733D+00 Coefficients=  1.0000000000D+00
 P 1 1.00
     Exponent=  1.9221634548D+00 Coefficients=  1.0000000000D+00
 P 1 1.00
     Exponent=  8.5429486881D-01 Coefficients=  1.0000000000D+00
 P 1 1.00
     Exponent=  3.7968660836D-01 Coefficients=  1.0000000000D+00
 P 1 1.00
     Exponent=  1.6874960372D-01 Coefficients=  1.0000000000D+00
 P 1 1.00
     Exponent=  7.4999823874D-02 Coefficients=  1.0000000000D+00
 P 1 1.00
     Exponent=  3.3333255055D-02 Coefficients=  1.0000000000D+00
 D 5 1.00
     Exponent=  1.9119003508D+03 Coefficients=  4.3300000000D-03
     Exponent=  7.6476014031D+02 Coefficients=  1.7780000000D-02
     Exponent=  3.0590405613D+02 Coefficients=  8.9710000000D-02
     Exponent=  1.2236162245D+02 Coefficients=  3.1123000000D-01
     Exponent=  4.8944648980D+01 Coefficients=  5.3206000000D-01
 D 1 1.00
     Exponent=  1.9577859592D+01 Coefficients=  1.0000000000D+00
 D 1 1.00
     Exponent=  7.8311438368D+00 Coefficients=  1.0000000000D+00
 D 1 1.00
     Exponent=  3.1324575347D+00 Coefficients=  1.0000000000D+00
 D 1 1.00
     Exponent=  1.2529830139D+00 Coefficients=  1.0000000000D+00
 D 1 1.00
     Exponent=  5.0119320556D-01 Coefficients=  1.0000000000D+00
 D 1 1.00
     Exponent=  2.0047728222D-01 Coefficients=  1.0000000000D+00
 D 1 1.00
     Exponent=  8.0190912889D-02 Coefficients=  1.0000000000D+00
 D 1 1.00
     Exponent=  3.2076365156D-02 Coefficients=  1.0000000000D+00
 F 4 1.00
     Exponent=  8.2289680979D+01 Coefficients=  6.1870000000D-02
     Exponent=  2.9923520356D+01 Coefficients=  2.4823000000D-01
     Exponent=  1.0881280130D+01 Coefficients=  4.9956000000D-01
     Exponent=  3.9568291380D+00 Coefficients=  4.0380000000D-01
 F 1 1.00
     Exponent=  1.4388469593D+00 Coefficients=  1.0000000000D+00
 F 1 1.00
     Exponent=  5.2321707610D-01 Coefficients=  1.0000000000D+00
 G 1 1.00
     Exponent=  2.6700000000D+00 Coefficients=  1.0000000000D+00
 G 1 1.00
     Exponent=  9.0960000000D-01 Coefficients=  1.0000000000D+00
 ****
 Ernie: Thresh=  0.10000D-02 Tol=  0.10000D-05 Strict=F.
 There are  1540 symmetry adapted cartesian basis functions of A   symmetry.
 There are  1430 symmetry adapted basis functions of A   symmetry.
  1430 basis functions,  2254 primitive gaussians,  1540 cartesian basis functions
   232 alpha electrons      232 beta electrons
       nuclear repulsion energy     12466.1446059037 Hartrees.
 IExCor= 1009 DFT=T Ex=PBE Corr=PBE ExCW=0 ScaHFX=  0.000000
 ScaDFX=  1.000000  1.000000  1.000000  1.000000 ScalE2=  1.000000  1.000000
 IRadAn=      0 IRanWt=     -1 IRanGd=            0 ICorTp=0 IEmpDi=  4
 NAtoms=   65 NActive=   65 NUniq=   65 SFac= 1.00D+00 NAtFMM=   60 NAOKFM=T Big=T
 Integral buffers will be    131072 words long.
 Raffenetti 2 integral format.
 Two-electron integral symmetry is turned on.
 ------------------------------------------------------------------------------
 Polarizable Continuum Model (PCM)
 =================================
 Model                : PCM (using non-symmetric T matrix).
 Atomic radii         : UFF (Universal Force Field).
 Polarization charges : Total charges.
 Charge compensation  : None.
 Solution method      : On-the-fly selection.
 Cavity type          : Scaled VdW (van der Waals Surface) (Alpha=1.100).
 Cavity algorithm     : GePol (No added spheres)
                        Default sphere list used, NSphG=   65.
                        Lebedev-Laikov grids with approx.  5.0 points / Ang**2.
                        Smoothing algorithm: Karplus/York (Gamma=1.0000).
                        Polarization charges: spherical gaussians, with
                                              point-specific exponents (IZeta= 3).
                        Self-potential: point-specific (ISelfS= 7).
                        Self-field    : sphere-specific E.n sum rule (ISelfD= 2).
 Solvent              : Dichloromethane, Eps=   8.930000 Eps(inf)=   2.028346
 ------------------------------------------------------------------------------
 GePol: Number of generator spheres                  =      65
 GePol: Total number of spheres                      =      65
 GePol: Number of exposed spheres                    =      65 (100.00%)
 GePol: Number of points                             =    4652
 GePol: Average weight of points                     =       0.14
 GePol: Minimum weight of points                     =   0.38D-10
 GePol: Maximum weight of points                     =    0.21838
 GePol: Number of points with low weight             =     330
 GePol: Fraction of low-weight points (<1% of avg)   =       7.09%
 GePol: Cavity surface area                          =    647.932 Ang**2
 GePol: Cavity volume                                =    803.063 Ang**3
 Leave Link  301 at Sat Nov  2 09:37:23 2019, MaxMem=   939524096 cpu:         1.3
 (Enter /scr/programas/g09/l302.exe)
 NPDir=0 NMtPBC=     1 NCelOv=     1 NCel=       1 NClECP=     1 NCelD=      1
         NCelK=      1 NCelE2=     1 NClLst=     1 CellRange=     0.0.
 One-electron integrals computed using PRISM.
 NBasis=  1430 RedAO= T EigKep=  2.34D-06  NBF=  1430
 NBsUse=  1430 1.00D-06 EigRej= -1.00D+00 NBFU=  1430
 Precomputing XC quadrature grid using
 IXCGrd= 4 IRadAn=           0 IRanWt=          -1 IRanGd=           0 AccXCQ= 0.00D+00.
 Defaulting to unpruned grid for atomic number  50.
 Defaulting to unpruned grid for atomic number  78.
 Generated NRdTot=       0 NPtTot=           0 NUsed=           0 NTot=          32
 NSgBfM=  1343  1344  1344  1344  1344 MxSgAt=    65 MxSgA2=    65.
 Leave Link  302 at Sat Nov  2 09:37:36 2019, MaxMem=   939524096 cpu:        48.0
 (Enter /scr/programas/g09/l308.exe)
 Leave Link  308 at Sat Nov  2 09:37:37 2019, MaxMem=   939524096 cpu:         4.5
 (Enter /scr/programas/g09/l303.exe)
 DipDrv:  MaxL=1.
 Leave Link  303 at Sat Nov  2 09:37:39 2019, MaxMem=   939524096 cpu:         3.3
 (Enter /scr/programas/g09/l401.exe)
 ExpMin= 1.08D-02 ExpMax= 2.16D+06 ExpMxC= 2.16D+06 IAcc=4 IRadAn=    199590 AccDes= 0.00D+00
 Harris functional with IExCor= 1009 and IRadAn=  199590 diagonalized for initial guess.
 HarFok:  IExCor= 1009 AccDes= 0.00D+00 IRadAn=    199590 IDoV= 1 UseB2=F ITyADJ=14
 ICtDFT=  3500011 ScaDFX=  1.000000  1.000000  1.000000  1.000000
 FoFCou: FMM=F IPFlag=           0 FMFlag=      100000 FMFlg1=        2001
         NFxFlg=           0 DoJE=T BraDBF=F KetDBF=T FulRan=T
         wScrn=  0.000000 ICntrl=     500 IOpCl=  0 I1Cent=   200000004 NGrid=           0
         NMat0=    1 NMatS0=      1 NMatT0=    0 NMatD0=    1 NMtDS0=    0 NMtDT0=    0
 Petite list used in FoFCou.
 Harris En= -33310.3300527022    
 JPrj=0 DoOrth=F DoCkMO=F.
 Leave Link  401 at Sat Nov  2 09:45:19 2019, MaxMem=   939524096 cpu:      1647.1
 (Enter /scr/programas/g09/l502.exe)
 Closed shell SCF:
 Using DIIS extrapolation, IDIIS=  1040.
 Integral symmetry usage will be decided dynamically.
 IVT=     7389506 IEndB=     7389506 NGot=   939524096 MDV=   934758731
 LenX=   934758731 LenY=   932385591
 Requested convergence on RMS density matrix=1.00D-04 within 500 cycles.
 Requested convergence on MAX density matrix=1.00D-02.
 Requested convergence on             energy=1.00D-02.
 No special actions if energy rises.
 Fock matrices will be formed incrementally for  20 cycles.

 Cycle   1  Pass 1  IDiag  1:
 FoFJK:  IHMeth= 1 ICntrl=     500 DoSepK=F KAlg= 0 I1Cent=   0 FoldK=F
 IRaf= 680000000 NMat=   1 IRICut=       1 DoRegI=T DoRafI=F ISym2E= 0.
 FoFCou: FMM=T IPFlag=           0 FMFlag=      100000 FMFlg1=        2001
         NFxFlg=           0 DoJE=T BraDBF=F KetDBF=F FulRan=T
         wScrn=  0.000000 ICntrl=     500 IOpCl=  0 I1Cent=           0 NGrid=           0
         NMat0=    1 NMatS0=      1 NMatT0=    0 NMatD0=    1 NMtDS0=    0 NMtDT0=    0
 Symmetry not used in FoFCou.
 FMM levels:  10  Number of levels for PrismC:   9
 Defaulting to unpruned grid for atomic number  78.
 Defaulting to unpruned grid for atomic number  78.
 Defaulting to unpruned grid for atomic number  78.
 Defaulting to unpruned grid for atomic number  78.
 Inv3:  Mode=1 IEnd=    64923312.
 Iteration    1 A*A^-1 deviation from unit magnitude is 1.04D-14 for   4201.
 Iteration    1 A*A^-1 deviation from orthogonality  is 7.22D-15 for   2540   1545.
 Iteration    1 A^-1*A deviation from unit magnitude is 8.99D-15 for   4117.
 Iteration    1 A^-1*A deviation from orthogonality  is 1.19D-10 for   2333   2286.
 Iteration    2 A*A^-1 deviation from unit magnitude is 1.07D-14 for   2618.
 Iteration    2 A*A^-1 deviation from orthogonality  is 1.08D-14 for   2651    912.
 Iteration    2 A^-1*A deviation from unit magnitude is 2.33D-15 for    104.
 Iteration    2 A^-1*A deviation from orthogonality  is 1.36D-15 for   2160    296.
 E= -33288.8770870360    
 DIIS: error= 2.83D-01 at cycle   1 NSaved=   1.
 NSaved= 1 IEnMin= 1 EnMin= -33288.8770870360     IErMin= 1 ErrMin= 2.83D-01
 ErrMax= 2.83D-01  0.00D+00 EMaxC= 1.00D-01 BMatC= 3.56D+02 BMatP= 3.56D+02
 IDIUse=3 WtCom= 0.00D+00 WtEn= 1.00D+00
 Coeff-Com:  0.100D+01
 Coeff-En:   0.100D+01
 Coeff:      0.100D+01
 Gap=     0.635 Goal=   None    Shift=    0.000
 GapD=    0.635 DampG=2.000 DampE=0.125 DampFc=0.2500 IDamp=-1.
 Damping current iteration by 2.50D-01
 RMSDP=1.23D-02 MaxDP=2.67D+00              OVMax= 8.19D-01

 Cycle   2  Pass 1  IDiag  1:
 RMSU=  3.04D-03    CP:  9.76D-01
 E= -33290.3825723773     Delta-E=       -1.505485341353 Rises=F Damp=T
 DIIS: error= 2.00D-01 at cycle   2 NSaved=   2.
 NSaved= 2 IEnMin= 2 EnMin= -33290.3825723773     IErMin= 2 ErrMin= 2.00D-01
 ErrMax= 2.00D-01  0.00D+00 EMaxC= 1.00D-01 BMatC= 1.71D+02 BMatP= 3.56D+02
 IDIUse=3 WtCom= 0.00D+00 WtEn= 1.00D+00
 Coeff-Com: -0.192D+01 0.292D+01
 Coeff-En:   0.263D+00 0.737D+00
 Coeff:      0.263D+00 0.737D+00
 Gap=     0.280 Goal=   None    Shift=    0.000
 RMSDP=3.29D-03 MaxDP=4.21D-01 DE=-1.51D+00 OVMax= 7.67D-01

 Cycle   3  Pass 1  IDiag  1:
 RMSU=  2.96D-03    CP:  9.25D-01  6.12D-01
 E= -33292.0379339765     Delta-E=       -1.655361599209 Rises=F Damp=F
 DIIS: error= 7.40D-02 at cycle   3 NSaved=   3.
 NSaved= 3 IEnMin= 3 EnMin= -33292.0379339765     IErMin= 3 ErrMin= 7.40D-02
 ErrMax= 7.40D-02  0.00D+00 EMaxC= 1.00D-01 BMatC= 1.88D+01 BMatP= 1.71D+02
 IDIUse=3 WtCom= 2.60D-01 WtEn= 7.40D-01
 EnCoef did   100 forward-backward iterations
 Coeff-Com:  0.746D+00-0.829D+00 0.108D+01
 Coeff-En:   0.348D+00 0.772D-02 0.644D+00
 Coeff:      0.452D+00-0.210D+00 0.758D+00
 Gap=     0.132 Goal=   None    Shift=    0.000
 RMSDP=5.99D-03 MaxDP=7.31D-01 DE=-1.66D+00 OVMax= 9.06D-01

 Cycle   4  Pass 1  IDiag  1:
 RMSU=  5.09D-03    CP:  8.43D-01  1.08D+00  1.52D-01
 E= -33282.8375211604     Delta-E=        9.200412816150 Rises=F Damp=F
 DIIS: error= 5.38D-02 at cycle   4 NSaved=   4.
 NSaved= 4 IEnMin= 3 EnMin= -33292.0379339765     IErMin= 4 ErrMin= 5.38D-02
 ErrMax= 5.38D-02  0.00D+00 EMaxC= 1.00D-01 BMatC= 1.12D+01 BMatP= 1.88D+01
 IDIUse=3 WtCom= 4.62D-01 WtEn= 5.38D-01
 EnCoef did     7 forward-backward iterations
 Coeff-Com:  0.447D+00-0.523D+00 0.633D+00 0.443D+00
 Coeff-En:   0.260D+00 0.000D+00 0.616D+00 0.124D+00
 Coeff:      0.347D+00-0.242D+00 0.624D+00 0.271D+00
 Gap=    -0.099 Goal=   None    Shift=    0.000
 RMSDP=5.55D-03 MaxDP=9.11D-01 DE= 9.20D+00 OVMax= 6.51D-01

 Cycle   5  Pass 1  IDiag  1:
 RMSU=  1.29D-03    CP:  9.38D-01  4.26D-01  5.70D-01  8.85D-02
 E= -33295.1693197573     Delta-E=      -12.331798596890 Rises=F Damp=F
 DIIS: error= 1.03D-02 at cycle   5 NSaved=   5.
 NSaved= 5 IEnMin= 5 EnMin= -33295.1693197573     IErMin= 5 ErrMin= 1.03D-02
 ErrMax= 1.03D-02  0.00D+00 EMaxC= 1.00D-01 BMatC= 4.16D-01 BMatP= 1.12D+01
 IDIUse=3 WtCom= 8.97D-01 WtEn= 1.03D-01
 Coeff-Com: -0.569D-01 0.932D-01 0.932D-01 0.954D-01 0.775D+00
 Coeff-En:   0.000D+00 0.000D+00 0.000D+00 0.000D+00 0.100D+01
 Coeff:     -0.511D-01 0.836D-01 0.836D-01 0.856D-01 0.798D+00
 Gap=     0.100 Goal=   None    Shift=    0.000
 RMSDP=1.79D-03 MaxDP=1.67D-01 DE=-1.23D+01 OVMax= 2.88D-01

 Cycle   6  Pass 1  IDiag  1:
 RMSU=  1.23D-03    CP:  8.97D-01  4.03D-01  6.12D-01  1.76D-01  1.90D-01
 E= -33295.0035916403     Delta-E=        0.165728116917 Rises=F Damp=F
 DIIS: error= 1.10D-02 at cycle   6 NSaved=   6.
 NSaved= 6 IEnMin= 5 EnMin= -33295.1693197573     IErMin= 5 ErrMin= 1.03D-02
 ErrMax= 1.10D-02  0.00D+00 EMaxC= 1.00D-01 BMatC= 4.88D-01 BMatP= 4.16D-01
 IDIUse=2 WtCom= 0.00D+00 WtEn= 1.00D+00
 Coeff-En:   0.000D+00 0.000D+00 0.000D+00 0.000D+00 0.633D+00 0.367D+00
 Coeff:      0.000D+00 0.000D+00 0.000D+00 0.000D+00 0.633D+00 0.367D+00
 Gap=     0.197 Goal=   None    Shift=    0.000
 RMSDP=2.33D-03 MaxDP=1.90D-01 DE= 1.66D-01 OVMax= 3.82D-01

 Cycle   7  Pass 1  IDiag  1:
 RMSU=  1.38D-03    CP:  8.26D-01  7.26D-01  7.35D-01  3.66D-01  4.73D-01
                    CP:  6.77D-01
 E= -33294.6370323747     Delta-E=        0.366559265633 Rises=F Damp=F
 DIIS: error= 1.71D-02 at cycle   7 NSaved=   7.
 NSaved= 7 IEnMin= 5 EnMin= -33295.1693197573     IErMin= 5 ErrMin= 1.03D-02
 ErrMax= 1.71D-02  0.00D+00 EMaxC= 1.00D-01 BMatC= 1.03D+00 BMatP= 4.16D-01
 IDIUse=2 WtCom= 0.00D+00 WtEn= 1.00D+00
 EnCoef did     3 forward-backward iterations
 Coeff-En:   0.000D+00 0.000D+00 0.000D+00 0.000D+00 0.465D+00 0.326D+00
 Coeff-En:   0.210D+00
 Coeff:      0.000D+00 0.000D+00 0.000D+00 0.000D+00 0.465D+00 0.326D+00
 Coeff:      0.210D+00
 Gap=     0.046 Goal=   None    Shift=    0.000
 RMSDP=1.45D-03 MaxDP=1.24D-01 DE= 3.67D-01 OVMax= 4.10D-01

 Cycle   8  Pass 1  IDiag  1:
 RMSU=  3.51D-04    CP:  8.73D-01  5.39D-01  6.75D-01  2.35D-01  5.85D-01
                    CP:  6.28D-01  4.24D-01
 E= -33295.3983843080     Delta-E=       -0.761351933310 Rises=F Damp=F
 DIIS: error= 4.57D-03 at cycle   8 NSaved=   8.
 NSaved= 8 IEnMin= 8 EnMin= -33295.3983843080     IErMin= 8 ErrMin= 4.57D-03
 ErrMax= 4.57D-03  0.00D+00 EMaxC= 1.00D-01 BMatC= 5.62D-02 BMatP= 4.16D-01
 IDIUse=3 WtCom= 9.54D-01 WtEn= 4.57D-02
 Coeff-Com: -0.114D-01 0.160D-01-0.960D-02-0.221D-02 0.202D+00 0.170D+00
 Coeff-Com:  0.113D-01 0.624D+00
 Coeff-En:   0.000D+00 0.000D+00 0.000D+00 0.000D+00 0.000D+00 0.745D-01
 Coeff-En:   0.000D+00 0.926D+00
 Coeff:     -0.108D-01 0.153D-01-0.916D-02-0.211D-02 0.193D+00 0.165D+00
 Coeff:      0.108D-01 0.638D+00
 Gap=     0.091 Goal=   None    Shift=    0.000
 RMSDP=4.93D-04 MaxDP=5.54D-02 DE=-7.61D-01 OVMax= 4.84D-02

 Cycle   9  Pass 1  IDiag  1:
 RMSU=  2.14D-04    CP:  8.89D-01  4.83D-01  6.39D-01  2.03D-01  5.92D-01
                    CP:  6.41D-01  2.64D-01  5.82D-01
 E= -33295.4249532347     Delta-E=       -0.026568926674 Rises=F Damp=F
 DIIS: error= 8.04D-04 at cycle   9 NSaved=   9.
 NSaved= 9 IEnMin= 9 EnMin= -33295.4249532347     IErMin= 9 ErrMin= 8.04D-04
 ErrMax= 8.04D-04  0.00D+00 EMaxC= 1.00D-01 BMatC= 4.46D-03 BMatP= 5.62D-02
 IDIUse=3 WtCom= 9.92D-01 WtEn= 8.04D-03
 Coeff-Com: -0.470D-03 0.761D-03-0.453D-02 0.473D-03 0.770D-01 0.536D-01
 Coeff-Com: -0.266D-01 0.465D+00 0.435D+00
 Coeff-En:   0.000D+00 0.000D+00 0.000D+00 0.000D+00 0.000D+00 0.000D+00
 Coeff-En:   0.000D+00 0.134D+00 0.866D+00
 Coeff:     -0.467D-03 0.755D-03-0.449D-02 0.469D-03 0.764D-01 0.532D-01
 Coeff:     -0.263D-01 0.462D+00 0.439D+00
 Gap=     0.083 Goal=   None    Shift=    0.000
 RMSDP=1.75D-04 MaxDP=1.67D-02 DE=-2.66D-02 OVMax= 2.87D-02

 Cycle  10  Pass 1  IDiag  1:
 RMSU=  6.23D-05    CP:  8.87D-01  4.93D-01  6.43D-01  2.07D-01  5.96D-01
                    CP:  6.13D-01  2.97D-01  7.91D-01  4.18D-01
 E= -33295.4293345643     Delta-E=       -0.004381329592 Rises=F Damp=F
 DIIS: error= 2.62D-04 at cycle  10 NSaved=  10.
 NSaved=10 IEnMin=10 EnMin= -33295.4293345643     IErMin=10 ErrMin= 2.62D-04
 ErrMax= 2.62D-04  0.00D+00 EMaxC= 1.00D-01 BMatC= 2.60D-04 BMatP= 4.46D-03
 IDIUse=3 WtCom= 9.97D-01 WtEn= 2.62D-03
 Coeff-Com: -0.419D-03 0.623D-03-0.222D-02 0.377D-03 0.355D-01 0.241D-01
 Coeff-Com: -0.159D-01 0.233D+00 0.275D+00 0.449D+00
 Coeff-En:   0.000D+00 0.000D+00 0.000D+00 0.000D+00 0.000D+00 0.000D+00
 Coeff-En:   0.000D+00 0.000D+00 0.107D-01 0.989D+00
 Coeff:     -0.418D-03 0.621D-03-0.221D-02 0.376D-03 0.354D-01 0.240D-01
 Coeff:     -0.158D-01 0.233D+00 0.275D+00 0.451D+00
 Gap=     0.082 Goal=   None    Shift=    0.000
 RMSDP=3.24D-05 MaxDP=1.87D-03 DE=-4.38D-03 OVMax= 8.93D-03

 Error on total polarization charges =  0.02631
 SCF Done:  E(RPBE-PBE) =  -33295.4293346     A.U. after   10 cycles
            NFock= 10  Conv=0.32D-04     -V/T= 2.0153
 KE= 3.279443408910D+04 PE=-1.037141711343D+05 EE= 2.515816310472D+04
 Leave Link  502 at Sat Nov  2 11:47:18 2019, MaxMem=   939524096 cpu:     27479.1
 (Enter /scr/programas/g09/l801.exe)
 Range of M.O.s used for correlation:     1  1430
 NBasis=  1430 NAE=   232 NBE=   232 NFC=     0 NFV=     0
 NROrb=   1430 NOA=   232 NOB=   232 NVA=  1198 NVB=  1198

 **** Warning!!: The largest alpha MO coefficient is  0.74322564D+02


 **** Warning!!: The smallest alpha delta epsilon is  0.81988188D-01

 Leave Link  801 at Sat Nov  2 11:47:19 2019, MaxMem=   939524096 cpu:         0.4
 (Enter /scr/programas/g09/l1002.exe)
 Minotr:  Closed shell wavefunction.
 NEqPCM:  Using equilibrium solvation (IEInf=0, Eps=   8.9300, EpsInf=   2.0283)
          Direct CPHF calculation.
          Differentiating once with respect to magnetic field using GIAOs.
          Electric field/nuclear overlap derivatives assumed to be zero.
          Requested convergence is 1.0D-08 RMS, and 1.0D-07 maximum.
          Secondary convergence is 1.0D-12 RMS, and 1.0D-12 maximum.
          NewPWx=T KeepS1=F KeepF1=F KeepIn=T MapXYZ=F SortEE=F KeepMc=T.
          MDV=     939522142 using IRadAn=       2.
 Defaulting to unpruned grid for atomic number  50.
 Defaulting to unpruned grid for atomic number  78.
 Generate precomputed XC quadrature information.
          Solving linear equations simultaneously, MaxMat=      72.
 FoFJK:  IHMeth= 1 ICntrl=    6127 DoSepK=F KAlg= 0 I1Cent=   0 FoldK=F
 IRaf=         1 NMat=   1 IRICut=       1 DoRegI=T DoRafI=F ISym2E= 0.
 Defaulting to unpruned grid for atomic number  78.
 Defaulting to unpruned grid for atomic number  78.
 Defaulting to unpruned grid for atomic number  78.
 Defaulting to unpruned grid for atomic number  78.
          There are     3 degrees of freedom in the 1st order CPHF.  IDoFFX=0 NUNeed=     3.
      3 vectors produced by pass  0 Test12= 9.26D-12 3.33D-08 XBig12= 4.44D+02 2.94D+00.
 AX will form     3 AO Fock derivatives at one time.
 InvSVY:  IOpt=1 It=  1 EMax= 0.00D+00
 Solved reduced A of dimension     3 with     3 vectors.
 Calculating GIAO nuclear magnetic shielding tensors.
 SCF GIAO Magnetic shielding tensor (ppm):
      1  P    Isotropic =   232.1848   Anisotropy =    72.0811
   XX=   201.0376   YX=    26.5285   ZX=   -16.0328
   XY=     3.0705   YY=   231.8203   ZY=   -35.8681
   XZ=    17.1423   YZ=   -19.2950   ZZ=   263.6965
   Eigenvalues:   192.9982   223.3173   280.2389
      2  P    Isotropic =   230.6602   Anisotropy =    73.0861
   XX=   200.5383   YX=    27.8894   ZX=   -16.3461
   XY=     4.5255   YY=   229.3372   ZY=   -36.7005
   XZ=    18.0957   YZ=   -20.4661   ZZ=   262.1049
   Eigenvalues:   190.5232   222.0731   279.3843
      3  C    Isotropic =    39.0147   Anisotropy =   123.1666
   XX=    28.4163   YX=    61.8183   ZX=   -15.4517
   XY=    64.0122   YY=    42.9228   ZY=   -31.1215
   XZ=     1.7983   YZ=   -62.7654   ZZ=    45.7050
   Eigenvalues:   -37.2279    33.1463   121.1258
      4  C    Isotropic =    10.6909   Anisotropy =   149.1871
   XX=   -23.9256   YX=    73.0690   ZX=   -26.9822
   XY=    75.0323   YY=     9.9629   ZY=   -47.2224
   XZ=   -11.3254   YZ=   -52.2662   ZZ=    46.0355
   Eigenvalues:   -85.1897     7.1135   110.1490
      5  C    Isotropic =    20.1904   Anisotropy =   189.5471
   XX=    24.3189   YX=    61.7028   ZX=   -15.7437
   XY=    64.1232   YY=    -0.7715   ZY=   -93.4070
   XZ=   -44.1457   YZ=   -92.5361   ZZ=    37.0238
   Eigenvalues:   -86.4927     0.5089   146.5552
      6  C    Isotropic =    46.8245   Anisotropy =   117.9988
   XX=    70.6890   YX=    45.9369   ZX=     0.9224
   XY=    57.3735   YY=    26.6424   ZY=   -60.9413
   XZ=   -27.7150   YZ=   -39.7597   ZZ=    43.1421
   Eigenvalues:   -27.6773    42.6605   125.4904
      7  C    Isotropic =   165.2430   Anisotropy =    23.8899
   XX=   176.7362   YX=    -3.5585   ZX=     8.5446
   XY=    -0.1757   YY=   157.3251   ZY=   -16.0146
   XZ=     1.6302   YZ=   -15.2008   ZZ=   161.6677
   Eigenvalues:   143.6228   170.9365   181.1696
      8  C    Isotropic =   161.7075   Anisotropy =    33.6723
   XX=   153.2890   YX=     8.3655   ZX=     4.0662
   XY=    11.1633   YY=   163.1648   ZY=    13.9797
   XZ=     4.9743   YZ=    15.7425   ZZ=   168.6688
   Eigenvalues:   146.0773   154.8895   184.1557
      9  C    Isotropic =    55.9940   Anisotropy =   128.4928
   XX=    79.3215   YX=    49.7109   ZX=    -8.3205
   XY=    57.9490   YY=    26.4484   ZY=   -55.0820
   XZ=   -35.8211   YZ=   -47.1194   ZZ=    62.2121
   Eigenvalues:   -21.7724    48.0985   141.6559
     10  C    Isotropic =    32.2602   Anisotropy =   189.3415
   XX=    36.6435   YX=    70.1983   ZX=   -14.3519
   XY=    63.1250   YY=     2.9745   ZY=  -102.1589
   XZ=   -38.7744   YZ=   -82.0604   ZZ=    57.1626
   Eigenvalues:   -80.1690    18.4617   158.4878
     11  C    Isotropic =    18.2672   Anisotropy =   138.8838
   XX=   -14.1407   YX=    75.9778   ZX=   -30.5148
   XY=    68.6927   YY=    11.0938   ZY=   -46.9769
   XZ=     7.7668   YZ=   -49.5742   ZZ=    57.8486
   Eigenvalues:   -78.9874    22.9326   110.8564
     12  C    Isotropic =    43.8248   Anisotropy =   128.0412
   XX=    30.9175   YX=    59.4565   ZX=   -10.9807
   XY=    67.2734   YY=    51.9886   ZY=   -38.9046
   XZ=     1.5876   YZ=   -63.1373   ZZ=    48.5684
   Eigenvalues:   -34.9573    37.2461   129.1856
     13  C    Isotropic =   158.9550   Anisotropy =    42.5025
   XX=   155.7671   YX=     4.7107   ZX=     6.9589
   XY=     7.6204   YY=   160.6681   ZY=    18.7902
   XZ=    11.0681   YZ=    27.3698   ZZ=   160.4299
   Eigenvalues:   137.2094   152.3656   187.2900
     14  C    Isotropic =   164.5510   Anisotropy =    26.6212
   XX=   178.2425   YX=    -3.9450   ZX=     9.1080
   XY=    -3.1534   YY=   156.3228   ZY=   -10.0911
   XZ=     4.2204   YZ=   -11.7369   ZZ=   159.0878
   Eigenvalues:   146.6000   164.7547   182.2985
     15  H    Isotropic =    23.4399   Anisotropy =     8.2757
   XX=    26.7216   YX=     3.6031   ZX=     1.8164
   XY=     2.2353   YY=    24.3535   ZY=     1.0115
   XZ=     1.5837   YZ=    -0.2894   ZZ=    19.2445
   Eigenvalues:    18.8603    22.5023    28.9570
     16  H    Isotropic =    23.5726   Anisotropy =     9.7934
   XX=    27.9659   YX=    -0.1344   ZX=     3.0417
   XY=     2.0447   YY=    22.5697   ZY=     2.7118
   XZ=     3.9413   YZ=     5.1047   ZZ=    20.1822
   Eigenvalues:    16.7999    23.8164    30.1015
     17  H    Isotropic =    28.5979   Anisotropy =    10.9100
   XX=    33.4913   YX=     4.0819   ZX=     2.1537
   XY=     3.3894   YY=    28.7679   ZY=     1.4646
   XZ=     0.9155   YZ=     1.2185   ZZ=    23.5344
   Eigenvalues:    23.1610    26.7614    35.8712
     18  H    Isotropic =    29.0306   Anisotropy =     6.3308
   XX=    32.5304   YX=    -2.1123   ZX=     0.1968
   XY=    -1.6941   YY=    28.1946   ZY=     3.5098
   XZ=     1.5746   YZ=     2.0122   ZZ=    26.3668
   Eigenvalues:    23.9721    29.8685    33.2512
     19  H    Isotropic =    29.2792   Anisotropy =     7.2438
   XX=    28.0163   YX=    -0.2235   ZX=     2.5509
   XY=    -1.1145   YY=    27.5044   ZY=    -1.7874
   XZ=     3.6978   YZ=     0.2507   ZZ=    32.3169
   Eigenvalues:    26.3216    27.4076    34.1084
     20  H    Isotropic =    29.2341   Anisotropy =     7.6185
   XX=    26.5943   YX=    -0.7856   ZX=     1.7142
   XY=    -0.3248   YY=    27.7683   ZY=    -0.4623
   XZ=     3.6591   YZ=    -0.1497   ZZ=    33.3397
   Eigenvalues:    25.5725    27.8167    34.3131
     21  H    Isotropic =    28.8933   Anisotropy =     6.8965
   XX=    29.2871   YX=    -0.9328   ZX=     2.3587
   XY=    -2.4344   YY=    29.8224   ZY=     3.8505
   XZ=     1.3631   YZ=     5.4531   ZZ=    27.5703
   Eigenvalues:    22.9246    30.2643    33.4909
     22  H    Isotropic =    29.0241   Anisotropy =    10.0751
   XX=    32.2378   YX=     3.2784   ZX=     1.2887
   XY=     4.8606   YY=    29.7560   ZY=     2.3308
   XZ=     1.2554   YZ=     1.8757   ZZ=    25.0785
   Eigenvalues:    24.2577    27.0738    35.7408
     23  H    Isotropic =    23.9580   Anisotropy =     9.3488
   XX=    28.8973   YX=     1.1235   ZX=     2.3500
   XY=     1.4730   YY=    21.9435   ZY=     2.9627
   XZ=     2.6185   YZ=     3.0861   ZZ=    21.0334
   Eigenvalues:    18.3170    23.3666    30.1906
     24  H    Isotropic =    23.6165   Anisotropy =     8.4569
   XX=    26.3083   YX=     3.2224   ZX=     2.0107
   XY=     3.1230   YY=    25.2837   ZY=     0.4021
   XZ=     1.7419   YZ=    -0.0275   ZZ=    19.2573
   Eigenvalues:    18.7248    22.8702    29.2544
     25  H    Isotropic =    29.9163   Anisotropy =     8.7376
   XX=    32.7482   YX=     2.9735   ZX=     1.0013
   XY=     4.0264   YY=    30.6935   ZY=     1.9614
   XZ=     1.4895   YZ=     0.9630   ZZ=    26.3071
   Eigenvalues:    25.8571    28.1505    35.7414
     26  H    Isotropic =    29.0680   Anisotropy =     6.6608
   XX=    29.7557   YX=    -0.6626   ZX=     2.1108
   XY=    -2.7545   YY=    29.6231   ZY=     4.0247
   XZ=     0.8073   YZ=     5.2785   ZZ=    27.8253
   Eigenvalues:    23.2340    30.4615    33.5086
     27  H    Isotropic =    29.2327   Anisotropy =     7.6454
   XX=    26.4191   YX=    -0.5776   ZX=     1.6295
   XY=     0.6372   YY=    27.5282   ZY=    -0.5522
   XZ=     2.5144   YZ=    -0.4552   ZZ=    33.7508
   Eigenvalues:    25.8590    27.5094    34.3297
     28  H    Isotropic =    29.1442   Anisotropy =    10.1201
   XX=    33.5406   YX=     3.8130   ZX=     2.0037
   XY=     3.3031   YY=    29.3105   ZY=     1.2926
   XZ=     0.7484   YZ=     1.6236   ZZ=    24.5814
   Eigenvalues:    24.1496    27.3920    35.8909
     29  H    Isotropic =    29.2804   Anisotropy =     7.0026
   XX=    27.9712   YX=    -0.0383   ZX=     2.7629
   XY=    -0.7099   YY=    27.8449   ZY=    -1.9916
   XZ=     3.2179   YZ=    -0.8592   ZZ=    32.0252
   Eigenvalues:    26.2958    27.5966    33.9489
     30  H    Isotropic =    29.3324   Anisotropy =     5.7211
   XX=    32.3958   YX=    -2.3312   ZX=     0.2928
   XY=    -1.1936   YY=    28.9830   ZY=     3.1586
   XZ=     1.4707   YZ=     1.7267   ZZ=    26.6182
   Eigenvalues:    24.7094    30.1413    33.1464
     31  Pt   Isotropic =  3693.4125   Anisotropy =  1470.8345
   XX=  4059.0320   YX=   573.0733   ZX=  -422.9269
   XY=   654.1147   YY=  3696.8145   ZY=  -362.0310
   XZ=  -419.9052   YZ=   -41.2914   ZZ=  3324.3910
   Eigenvalues:  3110.5528  3295.7159  4673.9689
     32  C    Isotropic =   120.6731   Anisotropy =    50.4055
   XX=   105.7076   YX=     2.8259   ZX=    -6.9119
   XY=     4.7428   YY=   117.0998   ZY=   -18.4243
   XZ=   -19.2051   YZ=   -20.8267   ZZ=   139.2118
   Eigenvalues:   100.2227   107.5198   154.2767
     33  C    Isotropic =   122.5702   Anisotropy =    47.4920
   XX=   108.1825   YX=     3.0444   ZX=    -7.7299
   XY=     3.9204   YY=   119.3476   ZY=   -17.5298
   XZ=   -17.1715   YZ=   -19.0531   ZZ=   140.1805
   Eigenvalues:   103.0450   110.4341   154.2315
     34  Sn   Isotropic =  2147.3322   Anisotropy =   754.7892
   XX=  2304.4867   YX=  -332.3079   ZX=   -42.4893
   XY=  -314.8946   YY=  2347.9029   ZY=   -28.0426
   XZ=   -58.6980   YZ=   -63.4360   ZZ=  1789.6069
   Eigenvalues:  1769.5846  2021.8870  2650.5250
     35  Cl   Isotropic =   736.4033   Anisotropy =   325.9224
   XX=   781.5254   YX=   -15.9308   ZX=   147.2749
   XY=   -21.4993   YY=   636.2780   ZY=   -68.1388
   XZ=   151.2130   YZ=  -103.1355   ZZ=   791.4066
   Eigenvalues:   582.0189   673.5061   953.6849
     36  Cl   Isotropic =   690.7942   Anisotropy =   333.2989
   XX=   580.0116   YX=    64.9297   ZX=   -32.1578
   XY=    74.4289   YY=   895.5081   ZY=    29.3863
   XZ=   -41.0967   YZ=    46.1582   ZZ=   596.8629
   Eigenvalues:   533.9132   625.4759   912.9935
     37  Cl   Isotropic =   697.2808   Anisotropy =   334.3363
   XX=   745.1879   YX=    17.4141   ZX=  -180.4253
   XY=    -3.8808   YY=   632.3495   ZY=    56.9721
   XZ=  -185.2575   YZ=    87.7084   ZZ=   714.3050
   Eigenvalues:   516.1926   655.4782   920.1717
     38  C    Isotropic =   146.2868   Anisotropy =    44.3014
   XX=   129.5438   YX=     1.2641   ZX=    -3.1508
   XY=     0.6096   YY=   157.9706   ZY=    18.8757
   XZ=    -4.7905   YZ=    22.7749   ZZ=   151.3462
   Eigenvalues:   127.3543   135.6851   175.8211
     39  H    Isotropic =    30.4936   Anisotropy =     5.0910
   XX=    28.3228   YX=     1.4601   ZX=    -1.4803
   XY=     2.8862   YY=    29.9906   ZY=    -0.8773
   XZ=    -1.2620   YZ=    -0.2112   ZZ=    33.1673
   Eigenvalues:    26.7189    30.8742    33.8876
     40  H    Isotropic =    29.3563   Anisotropy =     7.8277
   XX=    27.2653   YX=    -3.6230   ZX=    -2.7080
   XY=    -4.6039   YY=    32.0462   ZY=    -1.5443
   XZ=    -3.6310   YZ=    -0.0743   ZZ=    28.7573
   Eigenvalues:    23.1166    30.3775    34.5747
     41  H    Isotropic =    30.0119   Anisotropy =    11.3792
   XX=    25.4975   YX=     0.0272   ZX=    -1.9222
   XY=     0.2318   YY=    27.3392   ZY=    -0.1670
   XZ=    -2.1497   YZ=    -1.3123   ZZ=    37.1989
   Eigenvalues:    25.1534    27.2842    37.5980
     42  C    Isotropic =   154.7285   Anisotropy =    55.7342
   XX=   174.5021   YX=    25.6085   ZX=    -8.6039
   XY=    23.2685   YY=   151.7268   ZY=   -12.3507
   XZ=    -3.7933   YZ=    -4.8562   ZZ=   137.9567
   Eigenvalues:   132.2905   140.0105   191.8846
     43  H    Isotropic =    30.5531   Anisotropy =    13.2216
   XX=    29.5506   YX=     3.9558   ZX=    -4.5034
   XY=     3.2021   YY=    29.8046   ZY=    -6.1439
   XZ=    -2.7115   YZ=    -4.9929   ZZ=    32.3041
   Eigenvalues:    25.2106    27.0812    39.3675
     44  H    Isotropic =    30.2399   Anisotropy =     7.8331
   XX=    34.6587   YX=    -0.8087   ZX=    -1.6118
   XY=     1.3571   YY=    27.7016   ZY=    -3.3059
   XZ=    -2.4859   YZ=    -2.8827   ZZ=    28.3596
   Eigenvalues:    24.7746    30.4832    35.4620
     45  H    Isotropic =    30.3308   Anisotropy =     7.8802
   XX=    28.6128   YX=     4.9953   ZX=     0.0614
   XY=     3.5381   YY=    32.9472   ZY=     0.3339
   XZ=    -1.0774   YZ=    -0.5070   ZZ=    29.4325
   Eigenvalues:    25.9511    29.4571    35.5843
     46  C    Isotropic =   145.7456   Anisotropy =    44.4598
   XX=   161.0059   YX=   -19.7769   ZX=    -2.9905
   XY=   -21.0121   YY=   145.8776   ZY=    -6.7110
   XZ=     1.2119   YZ=    -6.0476   ZZ=   130.3534
   Eigenvalues:   125.1430   136.7084   175.3855
     47  H    Isotropic =    29.2599   Anisotropy =     7.7050
   XX=    27.8945   YX=    -2.5981   ZX=    -5.1622
   XY=    -2.2372   YY=    31.7551   ZY=     1.1943
   XZ=    -3.7952   YZ=     0.1842   ZZ=    28.1302
   Eigenvalues:    23.3341    30.0491    34.3966
     48  H    Isotropic =    30.0178   Anisotropy =     8.9862
   XX=    34.5848   YX=     1.2390   ZX=    -2.7235
   XY=    -0.6380   YY=    25.8370   ZY=    -3.1328
   XZ=    -2.4326   YZ=    -4.0920   ZZ=    29.6317
   Eigenvalues:    23.5423    30.5026    36.0086
     49  H    Isotropic =    29.9877   Anisotropy =    10.6609
   XX=    28.0357   YX=    -1.4336   ZX=     0.1809
   XY=    -1.3043   YY=    29.5092   ZY=    -5.9057
   XZ=    -0.4815   YZ=    -5.8855   ZZ=    32.4182
   Eigenvalues:    24.4994    28.3688    37.0949
     50  C    Isotropic =   146.2145   Anisotropy =    45.6758
   XX=   129.0810   YX=    -0.2980   ZX=    -2.8516
   XY=    -1.1563   YY=   158.8255   ZY=    19.5626
   XZ=    -5.1678   YZ=    23.0341   ZZ=   150.7369
   Eigenvalues:   127.6244   134.3540   176.6650
     51  H    Isotropic =    29.3851   Anisotropy =     8.0809
   XX=    27.5515   YX=    -3.4855   ZX=    -2.9804
   XY=    -4.8614   YY=    32.0123   ZY=    -1.3270
   XZ=    -3.3060   YZ=     0.2818   ZZ=    28.5916
   Eigenvalues:    23.3373    30.0457    34.7724
     52  H    Isotropic =    30.6209   Anisotropy =     4.7168
   XX=    28.4662   YX=     1.0791   ZX=    -1.2211
   XY=     2.6252   YY=    30.0992   ZY=    -0.8672
   XZ=    -0.9686   YZ=    -0.0762   ZZ=    33.2975
   Eigenvalues:    27.1845    30.9129    33.7655
     53  H    Isotropic =    29.8457   Anisotropy =    11.6162
   XX=    25.0413   YX=    -0.0278   ZX=    -2.0356
   XY=     0.1905   YY=    27.3099   ZY=    -0.1504
   XZ=    -2.2714   YZ=    -1.0131   ZZ=    37.1857
   Eigenvalues:    24.6706    27.2765    37.5898
     54  C    Isotropic =   145.5395   Anisotropy =    45.9036
   XX=   160.7049   YX=   -21.3313   ZX=    -2.5303
   XY=   -21.6618   YY=   145.7035   ZY=    -6.1751
   XZ=     1.4365   YZ=    -4.9651   ZZ=   130.2100
   Eigenvalues:   125.3853   135.0913   176.1419
     55  H    Isotropic =    30.1952   Anisotropy =     8.3408
   XX=    34.4410   YX=     1.1989   ZX=    -2.4339
   XY=    -0.7765   YY=    25.9611   ZY=    -2.7902
   XZ=    -2.2961   YZ=    -3.6230   ZZ=    30.1834
   Eigenvalues:    24.1426    30.6872    35.7557
     56  H    Isotropic =    29.3064   Anisotropy =     8.0274
   XX=    28.1079   YX=    -2.7785   ZX=    -5.3284
   XY=    -2.2812   YY=    31.8536   ZY=     1.0329
   XZ=    -3.3878   YZ=     0.8712   ZZ=    27.9577
   Eigenvalues:    23.5174    29.7438    34.6580
     57  H    Isotropic =    29.8160   Anisotropy =    10.8303
   XX=    27.9160   YX=    -1.6704   ZX=     0.0663
   XY=    -1.5618   YY=    29.2083   ZY=    -5.9912
   XZ=    -0.4294   YZ=    -5.9916   ZZ=    32.3236
   Eigenvalues:    24.0665    28.3453    37.0361
     58  C    Isotropic =   153.6715   Anisotropy =    57.0836
   XX=   173.3819   YX=    26.7217   ZX=    -8.9894
   XY=    24.1737   YY=   150.9497   ZY=   -12.3373
   XZ=    -3.3472   YZ=    -4.6175   ZZ=   136.6828
   Eigenvalues:   130.9578   138.3294   191.7272
     59  H    Isotropic =    30.5354   Anisotropy =    12.9916
   XX=    29.5025   YX=     3.9667   ZX=    -4.4995
   XY=     3.1351   YY=    29.6253   ZY=    -6.1770
   XZ=    -2.4018   YZ=    -4.7713   ZZ=    32.4785
   Eigenvalues:    25.1766    27.2332    39.1965
     60  H    Isotropic =    30.3819   Anisotropy =     7.4509
   XX=    28.5269   YX=     4.7126   ZX=    -0.0438
   XY=     3.1741   YY=    33.0684   ZY=     0.3206
   XZ=    -0.8919   YZ=     0.0344   ZZ=    29.5503
   Eigenvalues:    26.1750    29.6215    35.3491
     61  H    Isotropic =    30.2997   Anisotropy =     7.4495
   XX=    34.6849   YX=    -0.8605   ZX=    -1.6216
   XY=     1.0052   YY=    27.7472   ZY=    -3.1915
   XZ=    -1.9523   YZ=    -2.6218   ZZ=    28.4669
   Eigenvalues:    25.0415    30.5915    35.2660
     62  Sn   Isotropic =  2145.4719   Anisotropy =   755.5077
   XX=  2300.7957   YX=  -333.1784   ZX=   -42.3180
   XY=  -315.0294   YY=  2347.5962   ZY=   -29.4006
   XZ=   -58.2560   YZ=   -65.0482   ZZ=  1788.0236
   Eigenvalues:  1767.4900  2019.7819  2649.1436
     63  Cl   Isotropic =   736.4206   Anisotropy =   325.3952
   XX=   780.7511   YX=   -15.7363   ZX=   146.4235
   XY=   -21.0285   YY=   635.9997   ZY=   -68.5523
   XZ=   150.8723   YZ=  -103.2654   ZZ=   792.5112
   Eigenvalues:   581.9307   673.9805   953.3508
     64  Cl   Isotropic =   696.9257   Anisotropy =   334.1337
   XX=   746.6134   YX=    16.8492   ZX=  -180.1643
   XY=    -4.0403   YY=   631.5565   ZY=    56.2857
   XZ=  -184.9848   YZ=    86.3164   ZZ=   712.6073
   Eigenvalues:   516.7206   654.3750   919.6815
     65  Cl   Isotropic =   691.3173   Anisotropy =   333.4225
   XX=   580.0114   YX=    66.1995   ZX=   -32.2814
   XY=    75.6163   YY=   895.4082   ZY=    31.0957
   XZ=   -42.2952   YZ=    47.0310   ZZ=   598.5323
   Eigenvalues:   533.1338   627.2192   913.5990
 End of Minotr F.D. properties file   721 does not exist.
 End of Minotr F.D. properties file   722 does not exist.
 End of Minotr F.D. properties file   788 does not exist.
 Leave Link 1002 at Sat Nov  2 16:10:39 2019, MaxMem=   939524096 cpu:     62748.9
 (Enter /scr/programas/g09/l601.exe)
 Copying SCF densities to generalized density rwf, IOpCl= 0 IROHF=0.

 **********************************************************************

            Population analysis using the SCF density.

 **********************************************************************

 Orbital symmetries:
       Occupied  (A) (A) (A) (A) (A) (A) (A) (A) (A) (A) (A) (A)
                 (A) (A) (A) (A) (A) (A) (A) (A) (A) (A) (A) (A)
                 (A) (A) (A) (A) (A) (A) (A) (A) (A) (A) (A) (A)
                 (A) (A) (A) (A) (A) (A) (A) (A) (A) (A) (A) (A)
                 (A) (A) (A) (A) (A) (A) (A) (A) (A) (A) (A) (A)
                 (A) (A) (A) (A) (A) (A) (A) (A) (A) (A) (A) (A)
                 (A) (A) (A) (A) (A) (A) (A) (A) (A) (A) (A) (A)
                 (A) (A) (A) (A) (A) (A) (A) (A) (A) (A) (A) (A)
                 (A) (A) (A) (A) (A) (A) (A) (A) (A) (A) (A) (A)
                 (A) (A) (A) (A) (A) (A) (A) (A) (A) (A) (A) (A)
                 (A) (A) (A) (A) (A) (A) (A) (A) (A) (A) (A) (A)
                 (A) (A) (A) (A) (A) (A) (A) (A) (A) (A) (A) (A)
                 (A) (A) (A) (A) (A) (A) (A) (A) (A) (A) (A) (A)
                 (A) (A) (A) (A) (A) (A) (A) (A) (A) (A) (A) (A)
                 (A) (A) (A) (A) (A) (A) (A) (A) (A) (A) (A) (A)
                 (A) (A) (A) (A) (A) (A) (A) (A) (A) (A) (A) (A)
                 (A) (A) (A) (A) (A) (A) (A) (A) (A) (A) (A) (A)
                 (A) (A) (A) (A) (A) (A) (A) (A) (A) (A) (A) (A)
                 (A) (A) (A) (A) (A) (A) (A) (A) (A) (A) (A) (A)
                 (A) (A) (A) (A)
       Virtual   (A) (A) (A) (A) (A) (A) (A) (A) (A) (A) (A) (A)
                 (A) (A) (A) (A) (A) (A) (A) (A) (A) (A) (A) (A)
                 (A) (A) (A) (A) (A) (A) (A) (A) (A) (A) (A) (A)
                 (A) (A) (A) (A) (A) (A) (A) (A) (A) (A) (A) (A)
                 (A) (A) (A) (A) (A) (A) (A) (A) (A) (A) (A) (A)
                 (A) (A) (A) (A) (A) (A) (A) (A) (A) (A) (A) (A)
                 (A) (A) (A) (A) (A) (A) (A) (A) (A) (A) (A) (A)
                 (A) (A) (A) (A) (A) (A) (A) (A) (A) (A) (A) (A)
                 (A) (A) (A) (A) (A) (A) (A) (A) (A) (A) (A) (A)
                 (A) (A) (A) (A) (A) (A) (A) (A) (A) (A) (A) (A)
                 (A) (A) (A) (A) (A) (A) (A) (A) (A) (A) (A) (A)
                 (A) (A) (A) (A) (A) (A) (A) (A) (A) (A) (A) (A)
                 (A) (A) (A) (A) (A) (A) (A) (A) (A) (A) (A) (A)
                 (A) (A) (A) (A) (A) (A) (A) (A) (A) (A) (A) (A)
                 (A) (A) (A) (A) (A) (A) (A) (A) (A) (A) (A) (A)
                 (A) (A) (A) (A) (A) (A) (A) (A) (A) (A) (A) (A)
                 (A) (A) (A) (A) (A) (A) (A) (A) (A) (A) (A) (A)
                 (A) (A) (A) (A) (A) (A) (A) (A) (A) (A) (A) (A)
                 (A) (A) (A) (A) (A) (A) (A) (A) (A) (A) (A) (A)
                 (A) (A) (A) (A) (A) (A) (A) (A) (A) (A) (A) (A)
                 (A) (A) (A) (A) (A) (A) (A) (A) (A) (A) (A) (A)
                 (A) (A) (A) (A) (A) (A) (A) (A) (A) (A) (A) (A)
                 (A) (A) (A) (A) (A) (A) (A) (A) (A) (A) (A) (A)
                 (A) (A) (A) (A) (A) (A) (A) (A) (A) (A) (A) (A)
                 (A) (A) (A) (A) (A) (A) (A) (A) (A) (A) (A) (A)
                 (A) (A) (A) (A) (A) (A) (A) (A) (A) (A) (A) (A)
                 (A) (A) (A) (A) (A) (A) (A) (A) (A) (A) (A) (A)
                 (A) (A) (A) (A) (A) (A) (A) (A) (A) (A) (A) (A)
                 (A) (A) (A) (A) (A) (A) (A) (A) (A) (A) (A) (A)
                 (A) (A) (A) (A) (A) (A) (A) (A) (A) (A) (A) (A)
                 (A) (A) (A) (A) (A) (A) (A) (A) (A) (A) (A) (A)
                 (A) (A) (A) (A) (A) (A) (A) (A) (A) (A) (A) (A)
                 (A) (A) (A) (A) (A) (A) (A) (A) (A) (A) (A) (A)
                 (A) (A) (A) (A) (A) (A) (A) (A) (A) (A) (A) (A)
                 (A) (A) (A) (A) (A) (A) (A) (A) (A) (A) (A) (A)
                 (A) (A) (A) (A) (A) (A) (A) (A) (A) (A) (A) (A)
                 (A) (A) (A) (A) (A) (A) (A) (A) (A) (A) (A) (A)
                 (A) (A) (A) (A) (A) (A) (A) (A) (A) (A) (A) (A)
                 (A) (A) (A) (A) (A) (A) (A) (A) (A) (A) (A) (A)
                 (A) (A) (A) (A) (A) (A) (A) (A) (A) (A) (A) (A)
                 (A) (A) (A) (A) (A) (A) (A) (A) (A) (A) (A) (A)
                 (A) (A) (A) (A) (A) (A) (A) (A) (A) (A) (A) (A)
                 (A) (A) (A) (A) (A) (A) (A) (A) (A) (A) (A) (A)
                 (A) (A) (A) (A) (A) (A) (A) (A) (A) (A) (A) (A)
                 (A) (A) (A) (A) (A) (A) (A) (A) (A) (A) (A) (A)
                 (A) (A) (A) (A) (A) (A) (A) (A) (A) (A) (A) (A)
                 (A) (A) (A) (A) (A) (A) (A) (A) (A) (A) (A) (A)
                 (A) (A) (A) (A) (A) (A) (A) (A) (A) (A) (A) (A)
                 (A) (A) (A) (A) (A) (A) (A) (A) (A) (A) (A) (A)
                 (A) (A) (A) (A) (A) (A) (A) (A) (A) (A) (A) (A)
                 (A) (A) (A) (A) (A) (A) (A) (A) (A) (A) (A) (A)
                 (A) (A) (A) (A) (A) (A) (A) (A) (A) (A) (A) (A)
                 (A) (A) (A) (A) (A) (A) (A) (A) (A) (A) (A) (A)
                 (A) (A) (A) (A) (A) (A) (A) (A) (A) (A) (A) (A)
                 (A) (A) (A) (A) (A) (A) (A) (A) (A) (A) (A) (A)
                 (A) (A) (A) (A) (A) (A) (A) (A) (A) (A) (A) (A)
                 (A) (A) (A) (A) (A) (A) (A) (A) (A) (A) (A) (A)
                 (A) (A) (A) (A) (A) (A) (A) (A) (A) (A) (A) (A)
                 (A) (A) (A) (A) (A) (A) (A) (A) (A) (A) (A) (A)
                 (A) (A) (A) (A) (A) (A) (A) (A) (A) (A) (A) (A)
                 (A) (A) (A) (A) (A) (A) (A) (A) (A) (A) (A) (A)
                 (A) (A) (A) (A) (A) (A) (A) (A) (A) (A) (A) (A)
                 (A) (A) (A) (A) (A) (A) (A) (A) (A) (A) (A) (A)
                 (A) (A) (A) (A) (A) (A) (A) (A) (A) (A) (A) (A)
                 (A) (A) (A) (A) (A) (A) (A) (A) (A) (A) (A) (A)
                 (A) (A) (A) (A) (A) (A) (A) (A) (A) (A) (A) (A)
                 (A) (A) (A) (A) (A) (A) (A) (A) (A) (A) (A) (A)
                 (A) (A) (A) (A) (A) (A) (A) (A) (A) (A) (A) (A)
                 (A) (A) (A) (A) (A) (A) (A) (A) (A) (A) (A) (A)
                 (A) (A) (A) (A) (A) (A) (A) (A) (A) (A) (A) (A)
                 (A) (A) (A) (A) (A) (A) (A) (A) (A) (A) (A) (A)
                 (A) (A) (A) (A) (A) (A) (A) (A) (A) (A) (A) (A)
                 (A) (A) (A) (A) (A) (A) (A) (A) (A) (A) (A) (A)
                 (A) (A) (A) (A) (A) (A) (A) (A) (A) (A) (A) (A)
                 (A) (A) (A) (A) (A) (A) (A) (A) (A) (A) (A) (A)
                 (A) (A) (A) (A) (A) (A) (A) (A) (A) (A) (A) (A)
                 (A) (A) (A) (A) (A) (A) (A) (A) (A) (A) (A) (A)
                 (A) (A) (A) (A) (A) (A) (A) (A) (A) (A) (A) (A)
                 (A) (A) (A) (A) (A) (A) (A) (A) (A) (A) (A) (A)
                 (A) (A) (A) (A) (A) (A) (A) (A) (A) (A) (A) (A)
                 (A) (A) (A) (A) (A) (A) (A) (A) (A) (A) (A) (A)
                 (A) (A) (A) (A) (A) (A) (A) (A) (A) (A) (A) (A)
                 (A) (A) (A) (A) (A) (A) (A) (A) (A) (A) (A) (A)
                 (A) (A) (A) (A) (A) (A) (A) (A) (A) (A) (A) (A)
                 (A) (A) (A) (A) (A) (A) (A) (A) (A) (A) (A) (A)
                 (A) (A) (A) (A) (A) (A) (A) (A) (A) (A) (A) (A)
                 (A) (A) (A) (A) (A) (A) (A) (A) (A) (A) (A) (A)
                 (A) (A) (A) (A) (A) (A) (A) (A) (A) (A) (A) (A)
                 (A) (A) (A) (A) (A) (A) (A) (A) (A) (A) (A) (A)
                 (A) (A) (A) (A) (A) (A) (A) (A) (A) (A) (A) (A)
                 (A) (A) (A) (A) (A) (A) (A) (A) (A) (A) (A) (A)
                 (A) (A) (A) (A) (A) (A) (A) (A) (A) (A) (A) (A)
                 (A) (A) (A) (A) (A) (A) (A) (A) (A) (A) (A) (A)
                 (A) (A) (A) (A) (A) (A) (A) (A) (A) (A) (A) (A)
                 (A) (A) (A) (A) (A) (A) (A) (A) (A) (A) (A) (A)
                 (A) (A) (A) (A) (A) (A) (A) (A) (A) (A) (A) (A)
                 (A) (A) (A) (A) (A) (A) (A) (A) (A) (A) (A) (A)
                 (A) (A) (A) (A) (A) (A) (A) (A) (A) (A) (A) (A)
                 (A) (A) (A) (A) (A) (A) (A) (A) (A) (A) (A) (A)
                 (A) (A) (A) (A) (A) (A) (A) (A) (A) (A)
 The electronic state is 1-A.
 Alpha  occ. eigenvalues -- ******************************-427.55782-414.88841
 Alpha  occ. eigenvalues -- -414.88774-414.88512-149.66993-149.66958-141.94810
 Alpha  occ. eigenvalues -- -141.94800-141.94774-141.94764-141.94736-141.94701
 Alpha  occ. eigenvalues -- -100.56480-100.56459-100.56456-100.56451-100.56448
 Alpha  occ. eigenvalues -- -100.56427 -99.93824 -92.09690 -92.09591 -92.09167
 Alpha  occ. eigenvalues --  -79.05569 -79.05468 -79.05228 -79.05179 -79.05107
 Alpha  occ. eigenvalues --  -76.31890 -76.31842 -28.83356 -28.83325 -25.17998
 Alpha  occ. eigenvalues --  -25.17971 -25.17967 -25.17939 -25.17765 -25.17733
 Alpha  occ. eigenvalues --  -20.85285 -17.72882 -17.72882 -17.72850 -17.72849
 Alpha  occ. eigenvalues --  -17.72742 -17.72727 -17.72710 -17.72694 -17.72688
 Alpha  occ. eigenvalues --  -17.72656 -17.42144 -17.41951 -17.41071 -11.60515
 Alpha  occ. eigenvalues --  -11.60155 -11.59650 -11.59560 -11.59398  -9.94278
 Alpha  occ. eigenvalues --   -9.94236  -9.93225  -9.93020  -9.92782  -9.92656
 Alpha  occ. eigenvalues --   -9.90795  -9.90772  -9.90734  -9.90672  -9.89775
 Alpha  occ. eigenvalues --   -9.89709  -9.89545  -9.89508  -9.89070  -9.89065
 Alpha  occ. eigenvalues --   -9.89049  -9.89046  -9.89002  -9.89001  -9.14341
 Alpha  occ. eigenvalues --   -9.14327  -9.14325  -9.14323  -9.14323  -9.14301
 Alpha  occ. eigenvalues --   -6.98141  -6.98124  -6.98123  -6.98123  -6.98121
 Alpha  occ. eigenvalues --   -6.98099  -6.97529  -6.97518  -6.97514  -6.97512
 Alpha  occ. eigenvalues --   -6.97512  -6.97507  -6.97493  -6.97491  -6.97489
 Alpha  occ. eigenvalues --   -6.97487  -6.97487  -6.97469  -6.34887  -6.34850
 Alpha  occ. eigenvalues --   -4.57417  -4.57378  -4.57353  -4.57316  -4.57219
 Alpha  occ. eigenvalues --   -4.57182  -4.52047  -4.52021  -3.25506  -3.25481
 Alpha  occ. eigenvalues --   -3.25445  -3.25420  -3.25089  -3.25064  -3.15396
 Alpha  occ. eigenvalues --   -3.15370  -3.14870  -3.14614  -3.14422  -3.14342
 Alpha  occ. eigenvalues --   -3.14275  -2.88197  -1.83324  -1.82931  -1.80494
 Alpha  occ. eigenvalues --   -1.04533  -1.04515  -1.04509  -1.04491  -1.04169
 Alpha  occ. eigenvalues --   -1.04145  -1.04108  -1.04084  -1.04040  -1.03991
 Alpha  occ. eigenvalues --   -0.79731  -0.79662  -0.75672  -0.75652  -0.73321
 Alpha  occ. eigenvalues --   -0.73300  -0.71599  -0.71590  -0.71530  -0.71494
 Alpha  occ. eigenvalues --   -0.69980  -0.69926  -0.67987  -0.67899  -0.63248
 Alpha  occ. eigenvalues --   -0.63227  -0.63122  -0.63106  -0.61673  -0.61645
[...]
 Alpha virt. eigenvalues --    0.72616   0.72798   0.73021   0.73398   0.73504
 Alpha virt. eigenvalues --    0.73558   0.74148   0.74178   0.74390   0.74591
 Alpha virt. eigenvalues --    0.74994   0.75056   0.75405   0.75795   0.75855
 Alpha virt. eigenvalues --    0.76123   0.76185   0.76352   0.76373   0.76928
 Alpha virt. eigenvalues --    0.77012   0.77294   0.77659   0.77776   0.77809
 Alpha virt. eigenvalues --    0.78343   0.78559   0.78574   0.78906   0.79184
 Alpha virt. eigenvalues --    0.79478   0.79947   0.79997   0.80479   0.80492
 Alpha virt. eigenvalues --    0.80649   0.81070   0.81238   0.81377   0.81532
 Alpha virt. eigenvalues --    0.81651   0.81671   0.82350   0.82486   0.82651
 Alpha virt. eigenvalues --    0.83148   0.83262   0.83276   0.83793   0.83898
 Alpha virt. eigenvalues --    0.84382   0.84598   0.84785   0.84993   0.85097
 Alpha virt. eigenvalues --    0.85233   0.85380   0.86394   0.86578   0.86813
 Alpha virt. eigenvalues --    0.87089   0.87295   0.87511   0.87814   0.88004
 Alpha virt. eigenvalues --    0.88241   0.88611   0.89056   0.89318   0.89371
 Alpha virt. eigenvalues --    0.89777   0.89838   0.90370   0.90777   0.91137
 Alpha virt. eigenvalues --    0.91340   0.91885   0.91927   0.92083   0.92450
 Alpha virt. eigenvalues --    0.92739   0.93100   0.93358   0.93496   0.93759
 Alpha virt. eigenvalues --    0.93931   0.94493   0.95174   0.95212   0.95600
 Alpha virt. eigenvalues --    0.96015   0.96376   0.96696   0.96917   0.97316
 Alpha virt. eigenvalues --    0.97465   0.97871   0.98363   0.98566   0.98638
 Alpha virt. eigenvalues --    0.99314   0.99657   0.99821   0.99989   1.00402
 Alpha virt. eigenvalues --    1.00574   1.00768   1.00953   1.01161   1.01562
 Alpha virt. eigenvalues --    1.01882   1.02407   1.02498   1.02948   1.03117
 Alpha virt. eigenvalues --    1.03156   1.03751   1.03795   1.04021   1.04342
 Alpha virt. eigenvalues --    1.04848   1.04898   1.04914   1.05314   1.05827
 Alpha virt. eigenvalues --    1.06064   1.06403   1.06715   1.06865   1.07396
 Alpha virt. eigenvalues --    1.07434   1.08028   1.08300   1.08316   1.08775
 Alpha virt. eigenvalues --    1.08955   1.09053   1.09452   1.09713   1.10102
 Alpha virt. eigenvalues --    1.10613   1.11038   1.11529   1.11573   1.11805
 Alpha virt. eigenvalues --    1.12018   1.12228   1.12449   1.12666   1.12941
 Alpha virt. eigenvalues --    1.13041   1.13710   1.14019   1.14047   1.14405
 Alpha virt. eigenvalues --    1.14465   1.14743   1.14855   1.15191   1.16222
 Alpha virt. eigenvalues --    1.16270   1.16985   1.17266   1.17351   1.17770
 Alpha virt. eigenvalues --    1.18384   1.18599   1.18758   1.19187   1.19200
 Alpha virt. eigenvalues --    1.19603   1.20439   1.20506   1.21029   1.21074
 Alpha virt. eigenvalues --    1.21914   1.21964   1.22833   1.23085   1.23329
 Alpha virt. eigenvalues --    1.23661   1.24463   1.24567   1.25148   1.25358
 Alpha virt. eigenvalues --    1.26228   1.26327   1.26635   1.27020   1.27032
 Alpha virt. eigenvalues --    1.27631   1.28119   1.28167   1.28806   1.28906
 Alpha virt. eigenvalues --    1.29757   1.29803   1.30698   1.30985   1.30988
 Alpha virt. eigenvalues --    1.31906   1.32209   1.32397   1.32671   1.33722
 Alpha virt. eigenvalues --    1.33987   1.34006   1.34732   1.35241   1.35535
 Alpha virt. eigenvalues --    1.35868   1.36563   1.36686   1.37173   1.37278
 Alpha virt. eigenvalues --    1.37718   1.37980   1.38054   1.38556   1.39427
 Alpha virt. eigenvalues --    1.39556   1.39593   1.39884   1.40453   1.40466
 Alpha virt. eigenvalues --    1.40738   1.41039   1.41818   1.42182   1.42480
 Alpha virt. eigenvalues --    1.42587   1.43159   1.43179   1.43622   1.43996
 Alpha virt. eigenvalues --    1.44172   1.44430   1.45680   1.46065   1.46173
 Alpha virt. eigenvalues --    1.46370   1.47045   1.47336   1.47520   1.48086
 Alpha virt. eigenvalues --    1.48787   1.48917   1.49377   1.49629   1.49797
 Alpha virt. eigenvalues --    1.49861   1.50194   1.50690   1.51728   1.52011
 Alpha virt. eigenvalues --    1.52444   1.53074   1.53862   1.53984   1.54308
 Alpha virt. eigenvalues --    1.55104   1.55187   1.55253   1.55785   1.56769
 Alpha virt. eigenvalues --    1.57070   1.57896   1.58577   1.58967   1.60088
 Alpha virt. eigenvalues --    1.60166   1.60853   1.61368   1.62970   1.63050
 Alpha virt. eigenvalues --    1.63944   1.64287   1.64794   1.64869   1.65104
 Alpha virt. eigenvalues --    1.66328   1.66346   1.67259   1.68123   1.68205
 Alpha virt. eigenvalues --    1.68855   1.69011   1.69289   1.69506   1.69654
 Alpha virt. eigenvalues --    1.69845   1.70374   1.70515   1.71371   1.72637
 Alpha virt. eigenvalues --    1.72828   1.72995   1.73836   1.73916   1.75258
 Alpha virt. eigenvalues --    1.75674   1.75736   1.76443   1.76904   1.77515
 Alpha virt. eigenvalues --    1.78189   1.78491   1.78973   1.79630   1.80316
 Alpha virt. eigenvalues --    1.81291   1.81661   1.81899   1.82378   1.82536
 Alpha virt. eigenvalues --    1.83097   1.83789   1.83937   1.84273   1.84999
 Alpha virt. eigenvalues --    1.85063   1.86020   1.86680   1.86989   1.88346
 Alpha virt. eigenvalues --    1.88893   1.89214   1.89539   1.90258   1.90306
 Alpha virt. eigenvalues --    1.90704   1.91058   1.91213   1.91794   1.91817
 Alpha virt. eigenvalues --    1.93213   1.93540   1.93664   1.94061   1.94475
 Alpha virt. eigenvalues --    1.94542   1.95099   1.95240   1.95549   1.95598
 Alpha virt. eigenvalues --    1.96085   1.96759   1.97043   1.97800   1.98759
 Alpha virt. eigenvalues --    1.99268   1.99509   1.99722   2.00031   2.00532
 Alpha virt. eigenvalues --    2.01261   2.01536   2.01596   2.02841   2.03171
 Alpha virt. eigenvalues --    2.03213   2.03235   2.03819   2.03877   2.04660
 Alpha virt. eigenvalues --    2.04862   2.04928   2.05042   2.05507   2.05797
 Alpha virt. eigenvalues --    2.07392   2.07773   2.08059   2.08646   2.08717
 Alpha virt. eigenvalues --    2.09176   2.09499   2.10259   2.11101   2.11340
 Alpha virt. eigenvalues --    2.12203   2.12873   2.14087   2.14716   2.14762
 Alpha virt. eigenvalues --    2.15260   2.16026   2.16761   2.17156   2.17975
 Alpha virt. eigenvalues --    2.18428   2.19215   2.19385   2.19767   2.19849
 Alpha virt. eigenvalues --    2.20707   2.20767   2.21012   2.21646   2.22079
 Alpha virt. eigenvalues --    2.22746   2.23174   2.24145   2.24455   2.24879
 Alpha virt. eigenvalues --    2.25417   2.25621   2.26627   2.26906   2.27025
 Alpha virt. eigenvalues --    2.28595   2.28738   2.28851   2.29046   2.29516
 Alpha virt. eigenvalues --    2.29764   2.30328   2.31297   2.31553   2.31565
 Alpha virt. eigenvalues --    2.31617   2.32403   2.33669   2.34156   2.34582
 Alpha virt. eigenvalues --    2.34857   2.35866   2.35987   2.36805   2.37013
 Alpha virt. eigenvalues --    2.37956   2.38089   2.38966   2.39298   2.39571
 Alpha virt. eigenvalues --    2.40082   2.40119   2.40762   2.40913   2.41314
 Alpha virt. eigenvalues --    2.41682   2.41897   2.41969   2.42475   2.43062
 Alpha virt. eigenvalues --    2.43809   2.44094   2.45130   2.45201   2.46060
 Alpha virt. eigenvalues --    2.46397   2.46455   2.46525   2.46952   2.47500
 Alpha virt. eigenvalues --    2.47925   2.48152   2.48612   2.48754   2.49986
 Alpha virt. eigenvalues --    2.50045   2.50380   2.51017   2.51563   2.51877
 Alpha virt. eigenvalues --    2.52692   2.52742   2.53246   2.53426   2.54681
 Alpha virt. eigenvalues --    2.55285   2.55574   2.55970   2.57137   2.57948
 Alpha virt. eigenvalues --    2.58169   2.58565   2.59091   2.59467   2.59977
 Alpha virt. eigenvalues --    2.60736   2.62174   2.62411   2.63091   2.63582
 Alpha virt. eigenvalues --    2.63860   2.64028   2.64877   2.64922   2.66170
 Alpha virt. eigenvalues --    2.66540   2.67460   2.67647   2.68709   2.69692
 Alpha virt. eigenvalues --    2.71924   2.72231   2.73054   2.73635   2.74353
 Alpha virt. eigenvalues --    2.74462   2.74926   2.75591   2.78011   2.78141
 Alpha virt. eigenvalues --    2.78517   2.79043   2.79804   2.79957   2.80714
 Alpha virt. eigenvalues --    2.81410   2.83890   2.84388   2.86126   2.86180
 Alpha virt. eigenvalues --    2.88638   2.89028   2.89428   2.90378   2.90502
 Alpha virt. eigenvalues --    2.94088   3.02237   3.02485   3.04436   3.04795
 Alpha virt. eigenvalues --    3.05391   3.06310   3.07640   3.07693   3.08391
 Alpha virt. eigenvalues --    3.09245   3.09676   3.11351   3.11445   3.12109
 Alpha virt. eigenvalues --    3.12947   3.13177   3.14300   3.14509   3.15061
 Alpha virt. eigenvalues --    3.15678   3.15941   3.16322   3.17619   3.17889
 Alpha virt. eigenvalues --    3.17987   3.18133   3.18946   3.19168   3.19586
 Alpha virt. eigenvalues --    3.20012   3.20242   3.20347   3.21073   3.21601
 Alpha virt. eigenvalues --    3.22389   3.22439   3.23954   3.24732   3.25268
 Alpha virt. eigenvalues --    3.26086   3.26513   3.27007   3.28809   3.32292
 Alpha virt. eigenvalues --    3.36073   3.36241   3.36882   3.37426   3.41159
 Alpha virt. eigenvalues --    3.41780   3.44574   3.44934   3.45918   3.46075
 Alpha virt. eigenvalues --    3.47346   3.49346   3.50610   3.54700   3.54756
 Alpha virt. eigenvalues --    3.63764   3.70655   3.72634   3.73054   3.74071
 Alpha virt. eigenvalues --    3.80308   3.88920   3.89743   3.92053   3.95418
 Alpha virt. eigenvalues --    4.03887   4.17929   4.21074   4.24060   4.24410
 Alpha virt. eigenvalues --    4.30330   4.30695   4.33714   4.34623   4.37556
 Alpha virt. eigenvalues --    4.37796   4.37952   4.40610   4.41351   4.41468
 Alpha virt. eigenvalues --    4.42393   4.43577   4.44638   4.45933   4.50017
 Alpha virt. eigenvalues --    4.50374   4.55210   4.55820   4.75187   4.75285
 Alpha virt. eigenvalues --    5.48252   5.49489   5.53553   5.64752   5.65860
 Alpha virt. eigenvalues --    5.72030   5.73357   5.90808   6.08278   6.66396
 Alpha virt. eigenvalues --    6.67294   6.70263   6.72966   6.75905   6.76208
 Alpha virt. eigenvalues --    6.77229   6.78016   6.78171   6.78401   6.80060
 Alpha virt. eigenvalues --    6.80294   6.80403   6.81068   6.81266   6.83174
 Alpha virt. eigenvalues --    6.83230   6.83846   6.84156   6.85313   6.85589
 Alpha virt. eigenvalues --    6.86483   6.87496   6.87710   6.88329   6.90792
 Alpha virt. eigenvalues --    6.91831   6.92227   6.92906   6.93969   6.94288
 Alpha virt. eigenvalues --    6.94892   6.96448   6.97048   6.98498   6.99064
 Alpha virt. eigenvalues --    7.04878   7.04901   7.05801   7.07253   7.07949
 Alpha virt. eigenvalues --    7.08426   7.10038   7.10928   7.66891   7.68369
 Alpha virt. eigenvalues --    7.68394   7.71874   7.76507   7.77304   8.46408
 Alpha virt. eigenvalues --    8.47421   8.47876   8.48767   8.49758   8.50478
 Alpha virt. eigenvalues --    8.50951   8.55995   8.62128   8.98458   9.83852
 Alpha virt. eigenvalues --    9.84116   9.84525   9.85012   9.86250   9.86434
 Alpha virt. eigenvalues --    9.88625   9.90308   9.90827   9.91727   9.91817
 Alpha virt. eigenvalues --    9.92741   9.92792   9.98993  10.00087  10.02183
 Alpha virt. eigenvalues --   10.04547  10.04808  10.05331  10.05777  10.09998
 Alpha virt. eigenvalues --   10.12569  10.25278  14.00811  14.18161  15.60714
 Alpha virt. eigenvalues --   15.66093  16.73725  16.75272  16.88294  16.90838
 Alpha virt. eigenvalues --   16.91398  16.97364  17.02683  17.03845  17.12183
 Alpha virt. eigenvalues --   17.12775  17.13835  17.13954  17.16072  17.17247
 Alpha virt. eigenvalues --   17.17653  17.18187  17.18330  17.20739  17.20775
 Alpha virt. eigenvalues --   17.22339  17.29892  17.30711  17.38339  17.38688
 Alpha virt. eigenvalues --   17.40421  17.40866  20.96866  21.13580  21.30525
 Alpha virt. eigenvalues --   25.46785  25.47082  25.50356  25.58528  25.59434
 Alpha virt. eigenvalues --   25.64887  26.15343  31.65377  31.66977  31.69488
 Alpha virt. eigenvalues --   31.69556  31.72011  31.73898  31.75401  31.76592
 Alpha virt. eigenvalues --   31.79311  31.80208  42.92006  42.97872  43.03035
 Alpha virt. eigenvalues --   43.05865  43.14769  61.73307  61.88377  62.97751
 Alpha virt. eigenvalues --   63.02447  78.05682  78.07157  78.18490  78.20860
 Alpha virt. eigenvalues --   78.21259  78.26703  82.19602  86.09680  86.23712
 Alpha virt. eigenvalues --   86.36829  89.28851  89.29869  89.37953  89.38645
 Alpha virt. eigenvalues --   89.39680  89.39816  89.42187  89.43231  89.44001
 Alpha virt. eigenvalues --   89.44597  89.44691  89.47087  89.47219  89.48524
 Alpha virt. eigenvalues --   89.54568  89.55434  89.62674  89.62798  89.68138
 Alpha virt. eigenvalues --   89.68568 121.81641 121.82056 121.84181 121.89971
 Alpha virt. eigenvalues --  121.90614 121.94697 239.15764 239.19828 257.30241
 Alpha virt. eigenvalues --  332.05802 332.21672 428.70652 428.81706 428.91884
 Alpha virt. eigenvalues --  431.67347 431.68858 431.80809 431.83249 431.83750
 Alpha virt. eigenvalues --  431.89482 590.18890 590.19212 590.20811 590.25352
 Alpha virt. eigenvalues --  590.25853 590.28950 772.97770 839.55817 839.59442
 Alpha virt. eigenvalues -- 2068.576972529.935332529.967875495.37665**********
 Alpha virt. eigenvalues -- ******************************
          Condensed to atoms (all electrons):
 Mulliken charges:
               1
     1  P   -1.024931
     2  P   -1.018588
     3  C    0.243844
     4  C   -0.264334
     5  C   -0.531136
     6  C    0.504856
     7  C   -0.084528
     8  C   -0.130203
     9  C    0.505837
    10  C   -0.534073
    11  C   -0.270924
    12  C    0.242429
    13  C   -0.130449
    14  C   -0.085252
    15  H    0.080842
    16  H    0.080019
    17  H    0.139602
    18  H    0.121783
    19  H    0.129329
    20  H    0.138125
    21  H    0.127585
    22  H    0.140090
    23  H    0.080685
    24  H    0.081164
    25  H    0.140645
    26  H    0.128026
    27  H    0.138665
    28  H    0.139947
    29  H    0.129671
    30  H    0.122310
    31  Pt   0.766199
    32  C   -0.698412
    33  C   -0.700954
    34  Sn   0.314716
    35  Cl  -0.222213
    36  Cl  -0.174889
    37  Cl  -0.204211
    38  C    0.052971
    39  H    0.049329
    40  H    0.086695
    41  H    0.116512
    42  C   -0.002040
    43  H    0.124636
    44  H    0.097390
    45  H    0.093106
    46  C    0.076160
    47  H    0.083847
    48  H    0.040420
    49  H    0.115106
    50  C    0.052311
    51  H    0.086909
    52  H    0.049162
    53  H    0.116457
    54  C    0.075051
    55  H    0.041276
    56  H    0.083272
    57  H    0.115074
    58  C   -0.002658
    59  H    0.124848
    60  H    0.093350
    61  H    0.097282
    62  Sn   0.314270
    63  Cl  -0.223111
    64  Cl  -0.203381
    65  Cl  -0.175516
 Sum of Mulliken charges =   0.00000
 Mulliken charges with hydrogens summed into heavy atoms:
               1
     1  P   -1.024931
     2  P   -1.018588
     3  C    0.324687
     4  C   -0.264334
     5  C   -0.531136
     6  C    0.584875
     7  C    0.306186
     8  C    0.275598
     9  C    0.586522
    10  C   -0.534073
    11  C   -0.270924
    12  C    0.323593
    13  C    0.276887
    14  C    0.306675
    31  Pt   0.766199
    32  C   -0.698412
    33  C   -0.700954
    34  Sn   0.314716
    35  Cl  -0.222213
    36  Cl  -0.174889
    37  Cl  -0.204211
    38  C    0.305507
    42  C    0.313091
    46  C    0.315533
    50  C    0.304839
    54  C    0.314673
    58  C    0.312823
    62  Sn   0.314270
    63  Cl  -0.223111
    64  Cl  -0.203381
    65  Cl  -0.175516
 Electronic spatial extent (au):  <R**2>=          22893.1086
 Charge=              0.0000 electrons
 Dipole moment (field-independent basis, Debye):
    X=             -0.0455    Y=             -0.0017    Z=             -0.0493  Tot=              0.0671
 Quadrupole moment (field-independent basis, Debye-Ang):
   XX=           -296.7261   YY=           -346.4393   ZZ=           -300.7202
   XY=             65.9766   XZ=             11.6235   YZ=             -4.6456
 Traceless Quadrupole moment (field-independent basis, Debye-Ang):
   XX=             17.9024   YY=            -31.8108   ZZ=             13.9083
   XY=             65.9766   XZ=             11.6235   YZ=             -4.6456
 Octapole moment (field-independent basis, Debye-Ang**2):
  XXX=             -0.7843  YYY=              0.0339  ZZZ=             -0.2082  XYY=              0.0086
  XXY=             -0.5457  XXZ=             -0.1154  XZZ=              0.4215  YZZ=              0.1537
  YYZ=              0.3263  XYZ=             -0.0943
 Hexadecapole moment (field-independent basis, Debye-Ang**3):
 XXXX=         -12725.7744 YYYY=         -12012.5571 ZZZZ=          -4853.6305 XXXY=            367.3005
 XXXZ=            387.0620 YYYX=            242.3018 YYYZ=              8.8870 ZZZX=             17.7816
 ZZZY=            -43.2574 XXYY=          -4209.0097 XXZZ=          -2996.0547 YYZZ=          -2634.6273
 XXYZ=            163.2483 YYXZ=             95.1728 ZZXY=            182.1391
 N-N= 1.246614460590D+04 E-N=-1.037140079838D+05  KE= 3.279443408910D+04
 Calculating spin-rotation constants.
 Leave Link  601 at Sat Nov  2 16:17:07 2019, MaxMem=   939524096 cpu:       470.2
 (Enter /scr/programas/g09/l9999.exe)
 1\1\GINC-NQTCM\SP\RPBEPBE\Gen\C20H34Cl6P2Pt1Sn2\NQTCM\02-Nov-2019\0\\#
 PBEPBE/gen scf=(maxcycle=500,conver=4) NMR=GIAO Scrf=(solvent=Dichloro
 methane)\\estrutura 58\\0,1\P,0,-1.892136,-1.443207,0.470169\P,0,1.893
 019,1.442729,-0.469792\C,0,-3.524758,-0.733424,0.128805\C,0,-4.102343,
 -1.360051,-0.923523\C,0,-3.290443,-2.487536,-1.472688\C,0,-2.123311,-2
 .696924,-0.814987\C,0,-5.42666,-0.985794,-1.516766\C,0,-3.76467,-3.290
 481,-2.646921\C,0,2.117696,2.700188,0.812944\C,0,3.282145,2.493746,1.4
 76173\C,0,4.097187,1.365103,0.933957\C,0,3.525031,0.735456,-0.119555\C
 ,0,3.750968,3.301259,2.649455\C,0,5.418418,0.992919,1.535361\H,0,-3.97
 2633,0.086152,0.688446\H,0,-1.390018,-3.46219,-1.065494\H,0,-6.117257,
 -1.844949,-1.528296\H,0,-5.897372,-0.164895,-0.959586\H,0,-5.303934,-0
 .662499,-2.564394\H,0,-3.911334,-2.646338,-3.530013\H,0,-3.048083,-4.0
 80259,-2.909223\H,0,-4.73933,-3.760989,-2.435765\H,0,1.383122,3.46601,
 1.057925\H,0,3.975803,-0.085606,-0.674711\H,0,4.724425,3.774899,2.4389
 \H,0,3.030859,4.089192,2.908136\H,0,3.898257,2.659935,3.534645\H,0,6.1
 08908,1.852141,1.547774\H,0,5.289931,0.673201,2.583425\H,0,5.892146,0.
 17013,0.983524\Pt,0,0.000656,-0.000358,-0.001107\C,0,1.980275,2.202048
 ,-2.219214\C,0,-1.975009,-2.206151,2.218384\Sn,0,-1.648194,2.117068,0.
 19568\Cl,0,-3.119882,2.422878,-1.701939\Cl,0,-0.944971,4.434129,0.4557
 96\Cl,0,-3.231471,2.237043,2.040035\C,0,-1.970256,-1.050303,3.232971\H
 ,0,-1.052724,-0.446118,3.154908\H,0,-2.831593,-0.378726,3.112525\H,0,-
 2.009699,-1.473371,4.250468\C,0,-3.272151,-3.025754,2.334371\H,0,-3.31
 2473,-3.479416,3.338515\H,0,-4.169138,-2.402551,2.210824\H,0,-3.309404
 ,-3.841919,1.59734\C,0,-0.762744,-3.114966,2.46326\H,0,-0.690429,-3.93
 2692,1.733191\H,0,0.185142,-2.55646,2.463325\H,0,-0.863506,-3.567105,3
 .463845\C,0,1.991276,1.044117,-3.231404\H,0,2.857482,0.380292,-3.10463
 5\H,0,1.078426,0.43249,-3.157633\H,0,2.032994,1.465645,-4.249458\C,0,0
 .761267,3.099414,-2.473696\H,0,-0.181091,2.531364,-2.478924\H,0,0.6761
 59,3.917767,-1.745585\H,0,0.864442,3.550966,-3.47431\C,0,3.270938,3.03
 2649,-2.329214\H,0,3.317562,3.477493,-3.337072\H,0,3.292366,3.855743,-
 1.59912\H,0,4.172625,2.419194,-2.190303\Sn,0,1.648873,-2.117833,-0.198
 523\Cl,0,3.110789,-2.428286,1.70617\Cl,0,3.244908,-2.235985,-2.031576\
 Cl,0,0.942027,-4.43191,-0.472404\\Version=EM64L-G09RevD.01\State=1-A\H
 F=-33295.4293346\RMSD=3.243e-05\Dipole=-0.0179178,-0.000677,-0.0193947
 \Quadrupole=13.31002,-23.6505378,10.3405179,49.0519837,8.6418119,-3.45
 38869\PG=C01 [X(C20H34Cl6P2Pt1Sn2)]\\@


 E PUR SI MUOVE    -- GALILEO GALILEI
 Job cpu time:       1 days  1 hours 40 minutes  4.7 seconds.
 File lengths (MBytes):  RWF=   1508 Int=      0 D2E=      0 Chk=    112 Scr=      1
 Normal termination of Gaussian 09 at Sat Nov  2 16:17:08 2019.
