 Entering Gaussian System, Link 0=g09
 Input=estrutura21.com
 Output=estrutura21.log
 Initial command:
 /home/scr/programs/g09/l1.exe /home/scr/guest1/Gau-14128.inp -scrdir=/home/scr/guest1/
 Entering Link 1 = /home/scr/programs/g09/l1.exe PID=     14129.
  
 Copyright (c) 1988,1990,1992,1993,1995,1998,2003,2009, Gaussian, Inc.
                  All Rights Reserved.
  
 This is part of the Gaussian(R) 09 program.  It is based on
 the Gaussian(R) 03 system (copyright 2003, Gaussian, Inc.),
 the Gaussian(R) 98 system (copyright 1998, Gaussian, Inc.),
 the Gaussian(R) 94 system (copyright 1995, Gaussian, Inc.),
 the Gaussian 92(TM) system (copyright 1992, Gaussian, Inc.),
 the Gaussian 90(TM) system (copyright 1990, Gaussian, Inc.),
 the Gaussian 88(TM) system (copyright 1988, Gaussian, Inc.),
 the Gaussian 86(TM) system (copyright 1986, Carnegie Mellon
 University), and the Gaussian 82(TM) system (copyright 1983,
 Carnegie Mellon University). Gaussian is a federally registered
 trademark of Gaussian, Inc.
  
 This software contains proprietary and confidential information,
 including trade secrets, belonging to Gaussian, Inc.
  
 This software is provided under written license and may be
 used, copied, transmitted, or stored only in accord with that
 written license.
  
 The following legend is applicable only to US Government
 contracts under FAR:
  
                    RESTRICTED RIGHTS LEGEND
  
 Use, reproduction and disclosure by the US Government is
 subject to restrictions as set forth in subparagraphs (a)
 and (c) of the Commercial Computer Software - Restricted
 Rights clause in FAR 52.227-19.
  
 Gaussian, Inc.
 340 Quinnipiac St., Bldg. 40, Wallingford CT 06492
  
  
 ---------------------------------------------------------------
 Warning -- This program may not be used in any manner that
 competes with the business of Gaussian, Inc. or will provide
 assistance to any competitor of Gaussian, Inc.  The licensee
 of this program is prohibited from giving any competitor of
 Gaussian, Inc. access to this program.  By using this program,
 the user acknowledges that Gaussian, Inc. is engaged in the
 business of creating and licensing software in the field of
 computational chemistry and represents and warrants to the
 licensee that it is not a competitor of Gaussian, Inc. and that
 it will not use this program in any manner prohibited above.
 ---------------------------------------------------------------
  

 Cite this work as:
 Gaussian 09, Revision A.02,
 M. J. Frisch, G. W. Trucks, H. B. Schlegel, G. E. Scuseria, 
 M. A. Robb, J. R. Cheeseman, G. Scalmani, V. Barone, B. Mennucci, 
 G. A. Petersson, H. Nakatsuji, M. Caricato, X. Li, H. P. Hratchian, 
 A. F. Izmaylov, J. Bloino, G. Zheng, J. L. Sonnenberg, M. Hada, 
 M. Ehara, K. Toyota, R. Fukuda, J. Hasegawa, M. Ishida, T. Nakajima, 
 Y. Honda, O. Kitao, H. Nakai, T. Vreven, J. A. Montgomery, Jr., 
 J. E. Peralta, F. Ogliaro, M. Bearpark, J. J. Heyd, E. Brothers, 
 K. N. Kudin, V. N. Staroverov, R. Kobayashi, J. Normand, 
 K. Raghavachari, A. Rendell, J. C. Burant, S. S. Iyengar, J. Tomasi, 
 M. Cossi, N. Rega, J. M. Millam, M. Klene, J. E. Knox, J. B. Cross, 
 V. Bakken, C. Adamo, J. Jaramillo, R. Gomperts, R. E. Stratmann, 
 O. Yazyev, A. J. Austin, R. Cammi, C. Pomelli, J. W. Ochterski, 
 R. L. Martin, K. Morokuma, V. G. Zakrzewski, G. A. Voth, 
 P. Salvador, J. J. Dannenberg, S. Dapprich, A. D. Daniels, 
 O. Farkas, J. B. Foresman, J. V. Ortiz, J. Cioslowski, 
 and D. J. Fox, Gaussian, Inc., Wallingford CT, 2009.
 
 ******************************************
 Gaussian 09:  EM64L-G09RevA.02 11-Jun-2009
                 5-Jul-2020 
 ******************************************
 %mem=100Gb
 %nproc=32
 Will use up to   32 processors via shared memory.
 ----------------------------------------------------------------------
 #PBEPBE/gen scf=(maxcycle=500,conver=4) NMR=GIAO Scrf=(solvent=chlorof
 orm)
 ----------------------------------------------------------------------
 1/38=1/1;
 2/12=2,17=6,18=5,40=1/2;
 3/5=7,11=2,16=1,25=1,30=1,70=2201,72=7,74=1009/1,2,8,3;
 4//1;
 5/5=2,6=4,7=500,38=5,53=7/2;
 8/6=1,10=90,11=11/1;
 10/13=100,45=16/2;
 6/7=2,8=2,9=2,10=2,28=1/1;
 99/9=1/99;
 Leave Link    1 at Sun Jul  5 02:09:01 2020, MaxMem=13421772800 cpu:       2.1
 (Enter /home/scr/programs/g09/l101.exe)
 ------------
 estrutura 21
 ------------
 Symbolic Z-matrix:
 Charge = -1 Multiplicity = 1
 Sn                    0.97628   2.51338   0.00711 
 Sn                   -2.67109  -0.41433  -0.00364 
 Cl                   -4.09053   1.57138  -0.11245 
 Cl                   -3.7862   -1.56961   1.85188 
 Cl                   -3.64039  -1.68882  -1.86537 
 Cl                    3.41529   2.69206  -0.13994 
 Cl                    0.35687   4.04677  -1.81384 
 Cl                    0.59896   4.02056   1.91264 
 As                   -0.0183   -0.011     2.5174 
 C                     1.63225   0.60288   3.35824 
 H                     1.75716   1.67594   3.16206 
 H                     1.54648   0.43261   4.44169 
 H                     2.47716   0.02986   2.95561 
 C                    -1.37693   1.11716   3.34782 
 H                    -2.36996   0.69288   3.14896 
 H                    -1.1937    1.13582   4.43242 
 H                    -1.29554   2.13207   2.93795 
 C                    -0.31532  -1.7518    3.34938 
 H                     0.54557  -2.40104   3.1427 
 H                    -0.41161  -1.6004    4.43443 
 H                    -1.23934  -2.18731   2.94774 
 Pt                   -0.01564  -0.00214   0.02091 
 As                   -0.00252   0.00679  -2.47837 
 C                    -0.16587  -1.75271  -3.31853 
 H                    -0.48598  -1.60491  -4.36007 
 H                     0.8178   -2.24102  -3.29139 
 H                    -0.91078  -2.34935  -2.77903 
 C                     1.60771   0.7406   -3.30588 
 H                     1.59256   0.47412  -4.37324 
 H                     1.5958    1.83295  -3.19595 
 H                     2.49609   0.31049  -2.82625 
 C                    -1.43026   1.04611  -3.31249 
 H                    -1.16514   1.20676  -4.36785 
 H                    -2.36632   0.4766   -3.24503 
 H                    -1.52539   2.01163  -2.80099 
 Sn                    1.7135   -2.0789    0.00035 
 Cl                    3.3266   -2.3178   -1.83989 
 Cl                    0.68344  -4.29771  -0.13342 
 Cl                    3.21818  -2.50054   1.89422 
 
 NAtoms=     39 NQM=     39 NQMF=      0 NMic=      0 NMicF=      0 NTot=     39.
                    Isotopes and Nuclear Properties:
 (Nuclear quadrupole moments (NQMom) in fm**2, nuclear magnetic moments (NMagM)
  in nuclear magnetons)

  Atom         1           2           3           4           5           6           7           8           9          10
 IAtWgt=         118         118          35          35          35          35          35          35          75          12
 AtmWgt= 117.9018000 117.9018000  34.9688527  34.9688527  34.9688527  34.9688527  34.9688527  34.9688527  74.9215955  12.0000000
 NucSpn=           0           0           3           3           3           3           3           3           3           0
 AtZEff=   0.0000000   0.0000000   0.0000000   0.0000000   0.0000000   0.0000000   0.0000000   0.0000000   0.0000000   0.0000000
 NQMom=    0.0000000   0.0000000  -8.1650000  -8.1650000  -8.1650000  -8.1650000  -8.1650000  -8.1650000  31.4000000   0.0000000
 NMagM=    0.0000000   0.0000000   0.8218740   0.8218740   0.8218740   0.8218740   0.8218740   0.8218740   1.4394700   0.0000000

  Atom        11          12          13          14          15          16          17          18          19          20
 IAtWgt=           1           1           1          12           1           1           1          12           1           1
 AtmWgt=   1.0078250   1.0078250   1.0078250  12.0000000   1.0078250   1.0078250   1.0078250  12.0000000   1.0078250   1.0078250
 NucSpn=           1           1           1           0           1           1           1           0           1           1
 AtZEff=   0.0000000   0.0000000   0.0000000   0.0000000   0.0000000   0.0000000   0.0000000   0.0000000   0.0000000   0.0000000
 NQMom=    0.0000000   0.0000000   0.0000000   0.0000000   0.0000000   0.0000000   0.0000000   0.0000000   0.0000000   0.0000000
 NMagM=    2.7928460   2.7928460   2.7928460   0.0000000   2.7928460   2.7928460   2.7928460   0.0000000   2.7928460   2.7928460

  Atom        21          22          23          24          25          26          27          28          29          30
 IAtWgt=           1         195          75          12           1           1           1          12           1           1
 AtmWgt=   1.0078250 194.9648000  74.9215955  12.0000000   1.0078250   1.0078250   1.0078250  12.0000000   1.0078250   1.0078250
 NucSpn=           1           1           3           0           1           1           1           0           1           1
 AtZEff=   0.0000000   0.0000000   0.0000000   0.0000000   0.0000000   0.0000000   0.0000000   0.0000000   0.0000000   0.0000000
 NQMom=    0.0000000   0.0000000  31.4000000   0.0000000   0.0000000   0.0000000   0.0000000   0.0000000   0.0000000   0.0000000
 NMagM=    2.7928460   0.6095000   1.4394700   0.0000000   2.7928460   2.7928460   2.7928460   0.0000000   2.7928460   2.7928460

  Atom        31          32          33          34          35          36          37          38          39
 IAtWgt=           1          12           1           1           1         118          35          35          35
 AtmWgt=   1.0078250  12.0000000   1.0078250   1.0078250   1.0078250 117.9018000  34.9688527  34.9688527  34.9688527
 NucSpn=           1           0           1           1           1           0           3           3           3
 AtZEff=   0.0000000   0.0000000   0.0000000   0.0000000   0.0000000   0.0000000   0.0000000   0.0000000   0.0000000
 NQMom=    0.0000000   0.0000000   0.0000000   0.0000000   0.0000000   0.0000000  -8.1650000  -8.1650000  -8.1650000
 NMagM=    2.7928460   0.0000000   2.7928460   2.7928460   2.7928460   0.0000000   0.8218740   0.8218740   0.8218740
 Leave Link  101 at Sun Jul  5 02:09:01 2020, MaxMem=13421772800 cpu:       2.6
 (Enter /home/scr/programs/g09/l202.exe)
                          Input orientation:                          
 ---------------------------------------------------------------------
 Center     Atomic      Atomic             Coordinates (Angstroms)
 Number     Number       Type             X           Y           Z
 ---------------------------------------------------------------------
      1         50           0        0.976276    2.513382    0.007111
      2         50           0       -2.671090   -0.414334   -0.003643
      3         17           0       -4.090526    1.571375   -0.112453
      4         17           0       -3.786202   -1.569605    1.851884
      5         17           0       -3.640393   -1.688821   -1.865368
      6         17           0        3.415289    2.692064   -0.139942
      7         17           0        0.356871    4.046770   -1.813842
      8         17           0        0.598956    4.020563    1.912639
      9         33           0       -0.018295   -0.011004    2.517400
     10          6           0        1.632247    0.602876    3.358238
     11          1           0        1.757156    1.675942    3.162063
     12          1           0        1.546480    0.432608    4.441686
     13          1           0        2.477164    0.029858    2.955614
     14          6           0       -1.376925    1.117160    3.347819
     15          1           0       -2.369964    0.692883    3.148957
     16          1           0       -1.193697    1.135820    4.432416
     17          1           0       -1.295535    2.132068    2.937949
     18          6           0       -0.315320   -1.751803    3.349380
     19          1           0        0.545570   -2.401038    3.142698
     20          1           0       -0.411613   -1.600398    4.434431
     21          1           0       -1.239343   -2.187314    2.947736
     22         78           0       -0.015638   -0.002135    0.020912
     23         33           0       -0.002518    0.006794   -2.478366
     24          6           0       -0.165868   -1.752709   -3.318532
     25          1           0       -0.485976   -1.604905   -4.360074
     26          1           0        0.817798   -2.241022   -3.291385
     27          1           0       -0.910782   -2.349352   -2.779027
     28          6           0        1.607711    0.740602   -3.305875
     29          1           0        1.592561    0.474124   -4.373235
     30          1           0        1.595798    1.832945   -3.195951
     31          1           0        2.496086    0.310490   -2.826254
     32          6           0       -1.430255    1.046114   -3.312488
     33          1           0       -1.165136    1.206755   -4.367852
     34          1           0       -2.366324    0.476601   -3.245034
     35          1           0       -1.525386    2.011634   -2.800986
     36         50           0        1.713501   -2.078902    0.000347
     37         17           0        3.326604   -2.317803   -1.839893
     38         17           0        0.683444   -4.297708   -0.133424
     39         17           0        3.218179   -2.500540    1.894222
 ---------------------------------------------------------------------
                    Distance matrix (angstroms):
                    1          2          3          4          5
     1  Sn   0.000000
     2  Sn   4.677063   0.000000
     3  Cl   5.155013   2.443293   0.000000
     4  Cl   6.538744   2.453794   3.717121   0.000000
     5  Cl   6.517539   2.455582   3.728835   3.722020   0.000000
     6  Cl   2.449967   6.834639   7.589068   8.601783   8.482446
     7  Cl   2.459840   5.687426   5.366716   7.883291   6.991264
     8  Cl   2.458659   5.833837   5.664871   7.105159   8.052483
     9  As   3.696383   3.681800   5.099325   4.131498   5.928180
    10  C    3.912848   5.554788   6.762678   6.028961   7.767797
    11  H    3.356308   5.830979   6.702893   6.555834   8.107418
    12  H    4.931552   6.185965   7.335721   6.257270   8.437004
    13  H    4.136934   5.954748   7.411063   6.557915   7.976229
    14  C    4.318254   3.905462   4.420794   3.906551   6.338307
    15  H    4.937888   3.354921   3.790630   2.967656   5.694731
    16  H    5.117596   4.925879   5.407140   4.549676   7.323046
    17  H    3.727779   4.126655   4.175081   4.591878   6.570343
    18  C    5.570528   4.310596   6.105733   3.784536   6.184955
    19  H    5.845420   4.918674   6.918776   4.595838   6.565841
    20  H    6.200854   5.119422   6.653473   4.249512   7.079570
    21  H    5.970995   3.728806   5.623321   2.840589   5.401806
    22  Pt   2.704054   2.687366   4.370175   4.475106   4.420612
    23  As   3.663143   3.663725   4.975668   5.962580   4.060174
    24  C    5.528465   4.365303   6.060645   6.314550   3.766708
    25  H    6.178250   5.017038   6.412786   7.034285   4.022555
    26  H    5.788743   5.130144   6.980804   6.935476   4.713164
    27  H    5.913521   3.813887   5.709071   5.506485   2.953278
    28  C    3.810162   5.526912   6.584682   7.812415   5.959845
    29  H    4.870915   6.169393   7.187190   8.477029   6.192862
    30  H    3.332628   5.783375   6.473844   8.125510   6.449107
    31  H    3.897501   5.932302   7.234501   8.055239   6.525099
    32  C    4.354768   3.823746   4.194421   6.250057   3.802464
    33  H    5.043136   4.893071   5.176802   7.298169   4.557816
    34  H    5.088998   3.375391   3.739581   5.672882   2.866319
    35  H    3.794137   3.875963   3.741922   6.291722   4.363714
    36  Sn   4.651088   4.689930   6.857403   5.825316   5.683066
    37  Cl   5.681181   6.554948   8.551232   8.048666   6.995378
    38  Cl   6.818830   5.133258   7.565538   5.600154   5.338678
    39  Cl   5.807472   6.529750   8.603744   7.066101   7.863423
                    6          7          8          9         10
     6  Cl   0.000000
     7  Cl   3.740467   0.000000
     8  Cl   3.729575   3.734428   0.000000
     9  As   5.114444   5.946927   4.123138   0.000000
    10  C    4.447607   6.343296   3.852017   1.951447   0.000000
    11  H    3.832120   5.686937   2.898230   2.532509   1.097979
    12  H    5.439568   7.321814   4.490802   2.519561   1.100094
    13  H    4.189258   6.586269   4.532239   2.533973   1.097424
    14  C    6.132709   6.183155   3.793889   1.951467   3.052820
    15  H    6.948578   6.581304   4.627788   2.534693   4.008690
    16  H    6.676159   7.063542   4.229022   2.522709   3.069829
    17  H    5.654986   5.382940   2.864746   2.530012   3.329711
    18  C    6.770581   7.793212   6.018333   1.952126   3.055750
    19  H    6.704528   8.134932   6.538567   2.534009   3.201691
    20  H    7.348149   8.457067   6.243067   2.521087   3.192173
    21  H    7.416717   8.005269   6.556562   2.532286   4.024885
    22  Pt   4.365300   4.460798   4.487589   2.496505   3.770850
    23  As   4.935616   4.110007   5.979384   4.995823   6.090461
    24  C    6.533309   6.014258   7.828204   6.092078   7.304879
    25  H    7.175885   6.255807   8.495287   7.075231   8.302620
    26  H    6.404209   6.475486   8.144765   6.278058   7.277951
    27  H    7.148114   6.591578   8.053996   5.858032   7.269709
    28  C    4.135054   3.836862   6.245688   6.092564   6.665581
    29  H    5.114916   4.565219   7.285375   7.093029   7.732647
    30  H    3.658938   2.888977   5.645977   6.216737   6.668717
    31  H    3.705820   4.422783   6.310376   5.914398   6.251372
    32  C    6.021088   3.800486   6.345628   6.090872   7.353500
    33  H    6.407937   4.111588   7.104513   7.085540   8.239083
    34  H    6.926537   4.712771   6.924893   6.241526   7.720603
    35  H    5.652823   2.942639   5.546791   5.886223   7.063376
    36  Sn   5.067335   6.531124   6.488647   3.689292   4.298135
    37  Cl   5.291169   7.023374   7.854708   5.957825   6.198530
    38  Cl   7.504661   8.518261   8.566630   5.088726   6.091605
    39  Cl   5.580306   8.050099   7.027478   4.130485   3.780174
                   11         12         13         14         15
    11  H    0.000000
    12  H    1.796580   0.000000
    13  H    1.808487   1.799108   0.000000
    14  C    3.188919   3.195536   4.023686   0.000000
    15  H    4.242605   4.132484   4.896083   1.098036   0.000000
    16  H    3.257769   2.828986   4.108445   1.100123   1.796403
    17  H    3.094705   3.636817   4.318895   1.097568   1.808363
    18  C    4.009948   3.071007   3.335766   3.059078   3.199722
    19  H    4.253244   3.273949   3.110516   4.014446   4.251203
    20  H    4.129998   2.822640   3.631758   3.081830   3.278219
    21  H    4.893842   4.105690   4.327625   3.331448   3.100698
    22  Pt   3.978137   4.708764   3.850657   3.764868   3.976250
    23  As   6.139784   7.104072   5.973064   6.088213   6.143475
    24  C    7.579695   8.241889   7.037618   7.358196   7.257229
    25  H    8.507534   9.260309   8.060517   8.222837   8.075567
    26  H    7.607364   8.214601   6.850941   7.757140   7.761935
    27  H    7.656202   8.118875   7.072830   7.054944   6.820953
    28  C    6.536927   7.753922   6.361395   7.302157   7.582152
    29  H    7.632311   8.815139   7.395399   8.297350   8.504871
    30  H    6.361999   7.765106   6.470679   7.222905   7.568677
    31  H    6.186309   7.330731   5.788705   7.332810   7.715427
    32  C    7.244038   8.328539   7.455857   6.660899   6.538968
    33  H    8.090707   9.249872   8.263449   7.719097   7.630078
    34  H    7.713132   8.625406   7.880799   6.697383   6.397649
    35  H    6.815110   8.024088   7.286034   6.215298   6.152580
    36  Sn   4.908891   5.105004   3.709940   5.565170   5.854163
    37  Cl   6.590351   7.084620   5.406473   7.799648   8.148849
    38  Cl   6.906344   6.637195   5.611365   6.759066   6.708452
    39  Cl   4.602718   4.229363   2.842283   6.026249   6.557412
                   16         17         18         19         20
    16  H    0.000000
    17  H    1.798975   0.000000
    18  C    3.206693   4.026730   0.000000
    19  H    4.147021   4.897003   1.097887   0.000000
    20  H    2.845795   4.117290   1.099787   1.796051   0.000000
    21  H    3.639997   4.319759   1.097637   1.808204   1.799964
    22  Pt   4.705755   3.834327   3.772247   3.976838   4.710668
    23  As   7.102993   5.960298   6.095337   6.139578   7.108951
    24  C    8.335300   7.450583   6.669587   6.532531   7.758352
    25  H    9.236900   8.239023   7.712742   7.615084   8.794821
    26  H    8.666388   7.899031   6.754484   6.441827   7.849209
    27  H    8.014448   7.274268   6.186195   6.098398   7.269393
    28  C    8.239249   7.024981   7.362238   7.251354   8.334884
    29  H    9.259620   8.033884   8.260360   8.114924   9.267974
    30  H    8.152254   6.787784   7.703515   7.694678   8.604666
    31  H    8.184373   7.135865   7.091933   6.839977   8.051320
    32  C    7.749035   6.345503   7.311081   7.579985   8.249631
    33  H    8.800600   7.365320   8.308485   8.505942   9.269741
    34  H    7.794412   6.489718   7.256631   7.587032   8.192008
    35  H    7.293776   5.744799   7.311273   7.686866   8.163242
    36  Sn   6.199151   5.951140   3.929266   3.367819   4.940261
    37  Cl   8.467732   7.999581   6.364945   5.706776   7.338670
    38  Cl   7.341238   7.395384   4.428215   3.788052   5.416635
    39  Cl   6.255413   6.551644   3.894060   2.951513   4.520875
                   21         22         23         24         25
    21  H    0.000000
    22  Pt   3.852111   0.000000
    23  As   5.982176   2.499328   0.000000
    24  C    6.372389   3.773455   1.956633   0.000000
    25  H    7.369589   4.688617   2.524308   1.099602   0.000000
    26  H    6.569729   4.083937   2.527171   1.098538   1.801823
    27  H    5.738469   3.761698   2.542983   1.096333   1.798436
    28  C    7.469007   3.775504   1.953480   3.059795   3.316062
    29  H    8.288519   4.703366   2.520556   3.027087   2.939873
    30  H    7.870540   4.038868   2.530686   3.996925   4.184230
    31  H    7.316517   3.809573   2.540921   3.403693   3.861869
    32  C    7.048539   3.769817   1.953043   3.071176   3.002832
    33  H    8.064926   4.695105   2.522250   3.295153   2.892534
    34  H    6.834978   4.052322   2.529047   3.133246   3.018558
    35  H    7.124661   3.781232   2.538227   4.035644   4.073142
    36  Sn   4.173505   2.702463   3.665906   3.827974   4.906694
    37  Cl   6.617121   4.471632   4.110286   3.834458   4.625506
    38  Cl   4.200526   4.354823   4.949549   4.164524   5.146193
    39  Cl   4.591024   4.495430   5.981567   6.259699   7.323875
                   26         27         28         29         30
    26  H    0.000000
    27  H    1.806166   0.000000
    28  C    3.084518   4.020969   0.000000
    29  H    3.023686   4.096369   1.100226   0.000000
    30  H    4.148686   4.893708   1.097925   1.797888   0.000000
    31  H    3.089209   4.322469   1.097380   1.798967   1.806949
    32  C    3.982393   3.476150   3.053296   3.254193   3.128847
    33  H    4.120434   3.903198   3.005624   2.853361   3.064021
    34  H    4.186437   3.212752   3.983259   4.116505   4.188137
    35  H    4.880173   4.404137   3.418586   3.815429   3.151145
    36  Sn   3.415270   3.832091   4.346481   5.065648   5.052991
    37  Cl   2.899454   4.340324   3.802307   4.149649   4.697158
    38  Cl   3.771038   3.651967   6.025221   6.447703   6.913492
    39  Cl   5.720114   6.237823   6.335583   7.125467   6.879031
                   31         32         33         34         35
    31  H    0.000000
    32  C    4.024142   0.000000
    33  H    4.072390   1.099949   0.000000
    34  H    4.883237   1.097780   1.799082   0.000000
    35  H    4.366551   1.096774   1.797965   1.805736   0.000000
    36  Sn   3.783029   5.533878   6.177642   5.805865   5.922022
    37  Cl   2.927557   6.009341   6.244102   6.495579   6.573396
    38  Cl   5.636709   6.567390   7.186567   6.463531   7.197403
    39  Cl   5.541318   7.829210   8.495355   8.152423   8.056432
                   36         37         38         39
    36  Sn   0.000000
    37  Cl   2.458792   0.000000
    38  Cl   2.449900   3.717305   0.000000
    39  Cl   2.455320   3.740156   3.710262   0.000000
 Stoichiometry    C6H18As2Cl9PtSn3(1-)
 Framework group  C1[X(C6H18As2Cl9PtSn3)]
 Deg. of freedom   111
 Full point group                 C1      NOp   1
 Largest Abelian subgroup         C1      NOp   1
 Largest concise Abelian subgroup C1      NOp   1
                         Standard orientation:                         
 ---------------------------------------------------------------------
 Center     Atomic      Atomic             Coordinates (Angstroms)
 Number     Number       Type             X           Y           Z
 ---------------------------------------------------------------------
      1         50           0        0.976275    2.513382    0.007111
      2         50           0       -2.671090   -0.414335   -0.003643
      3         17           0       -4.090526    1.571373   -0.112453
      4         17           0       -3.786201   -1.569606    1.851884
      5         17           0       -3.640392   -1.688822   -1.865368
      6         17           0        3.415288    2.692065   -0.139942
      7         17           0        0.356870    4.046770   -1.813842
      8         17           0        0.598955    4.020563    1.912639
      9         33           0       -0.018295   -0.011004    2.517400
     10          6           0        1.632247    0.602877    3.358238
     11          1           0        1.757156    1.675943    3.162063
     12          1           0        1.546480    0.432609    4.441686
     13          1           0        2.477164    0.029859    2.955614
     14          6           0       -1.376925    1.117159    3.347819
     15          1           0       -2.369964    0.692882    3.148957
     16          1           0       -1.193697    1.135820    4.432416
     17          1           0       -1.295536    2.132068    2.937949
     18          6           0       -0.315319   -1.751803    3.349380
     19          1           0        0.545571   -2.401038    3.142698
     20          1           0       -0.411612   -1.600398    4.434431
     21          1           0       -1.239342   -2.187314    2.947736
     22         78           0       -0.015638   -0.002135    0.020912
     23         33           0       -0.002518    0.006794   -2.478366
     24          6           0       -0.165867   -1.752709   -3.318532
     25          1           0       -0.485975   -1.604905   -4.360074
     26          1           0        0.817799   -2.241022   -3.291385
     27          1           0       -0.910781   -2.349352   -2.779027
     28          6           0        1.607711    0.740603   -3.305875
     29          1           0        1.592561    0.474125   -4.373235
     30          1           0        1.595797    1.832946   -3.195951
     31          1           0        2.496086    0.310491   -2.826254
     32          6           0       -1.430255    1.046113   -3.312488
     33          1           0       -1.165136    1.206755   -4.367852
     34          1           0       -2.366324    0.476600   -3.245034
     35          1           0       -1.525387    2.011633   -2.800986
     36         50           0        1.713502   -2.078901    0.000347
     37         17           0        3.326605   -2.317802   -1.839893
     38         17           0        0.683446   -4.297708   -0.133424
     39         17           0        3.218180   -2.500539    1.894222
 ---------------------------------------------------------------------
 Rotational constants (GHZ):      0.0738608      0.0733443      0.0605574
 Leave Link  202 at Sun Jul  5 02:09:01 2020, MaxMem=13421772800 cpu:       1.0
 (Enter /home/scr/programs/g09/l301.exe)
 General basis read from cards:  (5D, 7F)
 Centers:  11 12 13 15 16 17 19 20 21 25 26 27 29 30 31 33 34 35
 S 5 1.00
     Exponent=  2.8295215633D+02 Coefficients=  4.3000000000D-04
     Exponent=  8.7062201949D+01 Coefficients=  5.1000000000D-04
     Exponent=  2.6788369830D+01 Coefficients=  6.1600000000D-03
     Exponent=  8.2425753324D+00 Coefficients=  1.3030000000D-02
     Exponent=  2.5361770254D+00 Coefficients=  9.9490000000D-02
 S 1 1.00
     Exponent=  7.8036216165D-01 Coefficients=  1.0000000000D+00
 S 1 1.00
     Exponent=  2.4011143435D-01 Coefficients=  1.0000000000D+00
 P 1 1.00
     Exponent=  8.8150000000D-01 Coefficients=  1.0000000000D+00
 P 1 1.00
     Exponent=  1.7989200000D-01 Coefficients=  1.0000000000D+00
 ****
 Centers:  10 14 18 24 28 32
 S 6 1.00
     Exponent=  8.8461235339D+03 Coefficients=  5.3000000000D-04
     Exponent=  2.9487078446D+03 Coefficients=  7.7000000000D-04
     Exponent=  9.8290261488D+02 Coefficients=  4.0500000000D-03
     Exponent=  3.2763420496D+02 Coefficients=  1.4030000000D-02
     Exponent=  1.0921140165D+02 Coefficients=  5.3450000000D-02
     Exponent=  3.6403800551D+01 Coefficients=  1.7027000000D-01
 S 1 1.00
     Exponent=  1.2134600184D+01 Coefficients=  1.0000000000D+00
 S 1 1.00
     Exponent=  4.0448667279D+00 Coefficients=  1.0000000000D+00
 S 1 1.00
     Exponent=  1.3482889093D+00 Coefficients=  1.0000000000D+00
 S 1 1.00
     Exponent=  4.4942963643D-01 Coefficients=  1.0000000000D+00
 S 1 1.00
     Exponent=  1.4980987881D-01 Coefficients=  1.0000000000D+00
 P 4 1.00
     Exponent=  3.7294093393D+01 Coefficients=  3.9600000000D-03
     Exponent=  1.1475105659D+01 Coefficients=  1.8890000000D-02
     Exponent=  3.5308017414D+00 Coefficients=  9.4610000000D-02
     Exponent=  1.0864005358D+00 Coefficients=  3.1889000000D-01
 P 1 1.00
     Exponent=  3.3427708794D-01 Coefficients=  1.0000000000D+00
 P 1 1.00
     Exponent=  1.0285448860D-01 Coefficients=  1.0000000000D+00
 D 1 1.00
     Exponent=  4.7750000000D-01 Coefficients=  1.0000000000D+00
 D 1 1.00
     Exponent=  1.1998000000D-01 Coefficients=  1.0000000000D+00
 ****
 Centers:   3  4  5  6  7  8 37 38 39
 S 7 1.00
     Exponent=  7.7142817164D+04 Coefficients=  1.0600000000D-03
     Exponent=  2.8051933514D+04 Coefficients=  6.4000000000D-04
     Exponent=  1.0200703096D+04 Coefficients=  3.9600000000D-03
     Exponent=  3.7093465804D+03 Coefficients=  9.8300000000D-03
     Exponent=  1.3488533020D+03 Coefficients=  3.2690000000D-02
     Exponent=  4.9049210981D+02 Coefficients=  9.9520000000D-02
     Exponent=  1.7836076720D+02 Coefficients=  2.6555000000D-01
 S 1 1.00
     Exponent=  6.4858460801D+01 Coefficients=  1.0000000000D+00
 S 1 1.00
     Exponent=  2.3584894837D+01 Coefficients=  1.0000000000D+00
 S 1 1.00
     Exponent=  8.5763253951D+00 Coefficients=  1.0000000000D+00
 S 1 1.00
     Exponent=  3.1186637801D+00 Coefficients=  1.0000000000D+00
 S 1 1.00
     Exponent=  1.1340595564D+00 Coefficients=  1.0000000000D+00
 S 1 1.00
     Exponent=  4.1238529323D-01 Coefficients=  1.0000000000D+00
 S 1 1.00
     Exponent=  1.4995828845D-01 Coefficients=  1.0000000000D+00
 S 1 1.00
     Exponent=  5.4530286708D-02 Coefficients=  1.0000000000D+00
 P 5 1.00
     Exponent=  6.9498536057D+02 Coefficients=  2.0000000000D-03
     Exponent=  2.3166178686D+02 Coefficients=  8.9500000000D-03
     Exponent=  7.7220595619D+01 Coefficients=  5.1130000000D-02
     Exponent=  2.5740198540D+01 Coefficients=  2.1011000000D-01
     Exponent=  8.5800661799D+00 Coefficients=  4.9738000000D-01
 P 1 1.00
     Exponent=  2.8600220600D+00 Coefficients=  1.0000000000D+00
 P 1 1.00
     Exponent=  9.5334068665D-01 Coefficients=  1.0000000000D+00
 P 1 1.00
     Exponent=  3.1778022888D-01 Coefficients=  1.0000000000D+00
 P 1 1.00
     Exponent=  1.0592674296D-01 Coefficients=  1.0000000000D+00
 P 1 1.00
     Exponent=  3.5308914320D-02 Coefficients=  1.0000000000D+00
 D 1 1.00
     Exponent=  5.5696000000D-01 Coefficients=  1.0000000000D+00
 D 1 1.00
     Exponent=  1.5619100000D-01 Coefficients=  1.0000000000D+00
 ****
 Centers:   9 23
 S 7 1.00
     Exponent=  3.0782645635D+05 Coefficients=  2.2400000000D-03
     Exponent=  1.2313058254D+05 Coefficients=  1.3000000000D-04
     Exponent=  4.9252233016D+04 Coefficients=  5.5100000000D-03
     Exponent=  1.9700893206D+04 Coefficients=  7.9300000000D-03
     Exponent=  7.8803572826D+03 Coefficients=  2.3410000000D-02
     Exponent=  3.1521429130D+03 Coefficients=  5.6580000000D-02
     Exponent=  1.2608571652D+03 Coefficients=  1.4418000000D-01
 S 1 1.00
     Exponent=  5.0434286609D+02 Coefficients=  1.0000000000D+00
 S 1 1.00
     Exponent=  2.0173714643D+02 Coefficients=  1.0000000000D+00
 S 1 1.00
     Exponent=  8.0694858574D+01 Coefficients=  1.0000000000D+00
 S 1 1.00
     Exponent=  3.2277943429D+01 Coefficients=  1.0000000000D+00
 S 1 1.00
     Exponent=  1.2911177372D+01 Coefficients=  1.0000000000D+00
 S 1 1.00
     Exponent=  5.1644709487D+00 Coefficients=  1.0000000000D+00
 S 1 1.00
     Exponent=  2.0657883795D+00 Coefficients=  1.0000000000D+00
 S 1 1.00
     Exponent=  8.2631535179D-01 Coefficients=  1.0000000000D+00
 S 1 1.00
     Exponent=  3.3052614072D-01 Coefficients=  1.0000000000D+00
 S 1 1.00
     Exponent=  1.3221045629D-01 Coefficients=  1.0000000000D+00
 S 1 1.00
     Exponent=  5.2884182515D-02 Coefficients=  1.0000000000D+00
 P 5 1.00
     Exponent=  3.7107657199D+03 Coefficients=  2.0300000000D-03
     Exponent=  1.3493693527D+03 Coefficients=  5.5800000000D-03
     Exponent=  4.9067976461D+02 Coefficients=  3.0440000000D-02
     Exponent=  1.7842900531D+02 Coefficients=  1.2317000000D-01
     Exponent=  6.4883274660D+01 Coefficients=  3.7966000000D-01
 P 1 1.00
     Exponent=  2.3593918058D+01 Coefficients=  1.0000000000D+00
 P 1 1.00
     Exponent=  8.5796065666D+00 Coefficients=  1.0000000000D+00
 P 1 1.00
     Exponent=  3.1198569333D+00 Coefficients=  1.0000000000D+00
 P 1 1.00
     Exponent=  1.1344934303D+00 Coefficients=  1.0000000000D+00
 P 1 1.00
     Exponent=  4.1254306556D-01 Coefficients=  1.0000000000D+00
 P 1 1.00
     Exponent=  1.5001566020D-01 Coefficients=  1.0000000000D+00
 P 1 1.00
     Exponent=  5.4551149165D-02 Coefficients=  1.0000000000D+00
 P 1 1.00
     Exponent=  1.9836781515D-02 Coefficients=  1.0000000000D+00
 D 4 1.00
     Exponent=  1.2073850248D+02 Coefficients=  8.2200000000D-03
     Exponent=  4.0246167494D+01 Coefficients=  4.8990000000D-02
     Exponent=  1.3415389165D+01 Coefficients=  2.0377000000D-01
     Exponent=  4.4717963882D+00 Coefficients=  3.7159000000D-01
 D 1 1.00
     Exponent=  1.4905987961D+00 Coefficients=  1.0000000000D+00
 D 1 1.00
     Exponent=  4.9686626535D-01 Coefficients=  1.0000000000D+00
 F 1 1.00
     Exponent=  1.2030000000D+00 Coefficients=  1.0000000000D+00
 F 1 1.00
     Exponent=  5.2800000000D-01 Coefficients=  1.0000000000D+00
 ****
 Centers:   1  2 36
 S 8 1.00
     Exponent=  7.5448214551D+05 Coefficients=  4.4300000000D-03
     Exponent=  3.3532539800D+05 Coefficients=  1.9800000000D-03
     Exponent=  1.4903351022D+05 Coefficients=  9.0500000000D-03
     Exponent=  6.6237115655D+04 Coefficients=  4.8700000000D-03
     Exponent=  2.9438718069D+04 Coefficients=  2.0770000000D-02
     Exponent=  1.3083874697D+04 Coefficients=  3.2900000000D-02
     Exponent=  5.8150554210D+03 Coefficients=  7.7010000000D-02
     Exponent=  2.5844690760D+03 Coefficients=  1.5160000000D-01
 S 1 1.00
     Exponent=  1.1486529227D+03 Coefficients=  1.0000000000D+00
 S 1 1.00
     Exponent=  5.1051241008D+02 Coefficients=  1.0000000000D+00
 S 1 1.00
     Exponent=  2.2689440448D+02 Coefficients=  1.0000000000D+00
 S 1 1.00
     Exponent=  1.0084195755D+02 Coefficients=  1.0000000000D+00
 S 1 1.00
     Exponent=  4.4818647798D+01 Coefficients=  1.0000000000D+00
 S 1 1.00
     Exponent=  1.9919399021D+01 Coefficients=  1.0000000000D+00
 S 1 1.00
     Exponent=  8.8530662317D+00 Coefficients=  1.0000000000D+00
 S 1 1.00
     Exponent=  3.9346961030D+00 Coefficients=  1.0000000000D+00
 S 1 1.00
     Exponent=  1.7487538235D+00 Coefficients=  1.0000000000D+00
 S 1 1.00
     Exponent=  7.7722392158D-01 Coefficients=  1.0000000000D+00
 S 1 1.00
     Exponent=  3.4543285403D-01 Coefficients=  1.0000000000D+00
 S 1 1.00
     Exponent=  1.5352571290D-01 Coefficients=  1.0000000000D+00
 S 1 1.00
     Exponent=  6.8233650180D-02 Coefficients=  1.0000000000D+00
 S 1 1.00
     Exponent=  1.3478251887D-02 Coefficients=  1.0000000000D+00
 P 5 1.00
     Exponent=  1.0090658304D+04 Coefficients=  2.7500000000D-03
     Exponent=  4.0362633217D+03 Coefficients=  4.1800000000D-03
     Exponent=  1.6145053287D+03 Coefficients=  2.0890000000D-02
     Exponent=  6.4580213147D+02 Coefficients=  7.1370000000D-02
     Exponent=  2.5832085259D+02 Coefficients=  2.2613000000D-01
 P 1 1.00
     Exponent=  1.0332834104D+02 Coefficients=  1.0000000000D+00
 P 1 1.00
     Exponent=  4.1331336414D+01 Coefficients=  1.0000000000D+00
 P 1 1.00
     Exponent=  1.6532534566D+01 Coefficients=  1.0000000000D+00
 P 1 1.00
     Exponent=  6.6130138263D+00 Coefficients=  1.0000000000D+00
 P 1 1.00
     Exponent=  2.6452055305D+00 Coefficients=  1.0000000000D+00
 P 1 1.00
     Exponent=  1.0580822122D+00 Coefficients=  1.0000000000D+00
 P 1 1.00
     Exponent=  4.2323288488D-01 Coefficients=  1.0000000000D+00
 P 1 1.00
     Exponent=  1.6929315395D-01 Coefficients=  1.0000000000D+00
 P 1 1.00
     Exponent=  6.7717261581D-02 Coefficients=  1.0000000000D+00
 P 1 1.00
     Exponent=  2.7086904632D-02 Coefficients=  1.0000000000D+00
 P 1 1.00
     Exponent=  1.0834761853D-02 Coefficients=  1.0000000000D+00
 D 4 1.00
     Exponent=  5.5430250651D+02 Coefficients=  4.3700000000D-03
     Exponent=  2.0156454782D+02 Coefficients=  2.5110000000D-02
     Exponent=  7.3296199207D+01 Coefficients=  1.3316000000D-01
     Exponent=  2.6653163348D+01 Coefficients=  3.8900000000D-01
 D 1 1.00
     Exponent=  9.6920593993D+00 Coefficients=  1.0000000000D+00
 D 1 1.00
     Exponent=  3.5243852361D+00 Coefficients=  1.0000000000D+00
 D 1 1.00
     Exponent=  1.2815946313D+00 Coefficients=  1.0000000000D+00
 D 1 1.00
     Exponent=  4.6603441139D-01 Coefficients=  1.0000000000D+00
 D 1 1.00
     Exponent=  1.6946705869D-01 Coefficients=  1.0000000000D+00
 F 1 1.00
     Exponent=  1.3140000000D+00 Coefficients=  1.0000000000D+00
 F 1 1.00
     Exponent=  1.9993000000D-01 Coefficients=  1.0000000000D+00
 ****
 Centers:  22
 S 9 1.00
     Exponent=  2.1644816090D+06 Coefficients=  1.2320000000D-02
     Exponent=  1.0822408045D+06 Coefficients=  1.2970000000D-02
     Exponent=  5.4112040224D+05 Coefficients=  2.6370000000D-02
     Exponent=  2.7056020112D+05 Coefficients=  9.0400000000D-03
     Exponent=  1.3528010056D+05 Coefficients=  3.4980000000D-02
     Exponent=  6.7640050280D+04 Coefficients=  1.2220000000D-02
     Exponent=  3.3820025140D+04 Coefficients=  6.0520000000D-02
     Exponent=  1.6910012570D+04 Coefficients=  6.4930000000D-02
     Exponent=  8.4550062850D+03 Coefficients=  1.3819000000D-01
 S 1 1.00
     Exponent=  4.2275031425D+03 Coefficients=  1.0000000000D+00
 S 1 1.00
     Exponent=  2.1137515713D+03 Coefficients=  1.0000000000D+00
 S 1 1.00
     Exponent=  1.0568757856D+03 Coefficients=  1.0000000000D+00
 S 1 1.00
     Exponent=  5.2843789281D+02 Coefficients=  1.0000000000D+00
 S 1 1.00
     Exponent=  2.6421894641D+02 Coefficients=  1.0000000000D+00
 S 1 1.00
     Exponent=  1.3210947320D+02 Coefficients=  1.0000000000D+00
 S 1 1.00
     Exponent=  6.6054736602D+01 Coefficients=  1.0000000000D+00
 S 1 1.00
     Exponent=  3.3027368301D+01 Coefficients=  1.0000000000D+00
 S 1 1.00
     Exponent=  1.6513684150D+01 Coefficients=  1.0000000000D+00
 S 1 1.00
     Exponent=  8.2568420752D+00 Coefficients=  1.0000000000D+00
 S 1 1.00
     Exponent=  4.1284210376D+00 Coefficients=  1.0000000000D+00
 S 1 1.00
     Exponent=  2.0642105188D+00 Coefficients=  1.0000000000D+00
 S 1 1.00
     Exponent=  1.0321052594D+00 Coefficients=  1.0000000000D+00
 S 1 1.00
     Exponent=  5.1605262970D-01 Coefficients=  1.0000000000D+00
 S 1 1.00
     Exponent=  2.5802631485D-01 Coefficients=  1.0000000000D+00
 S 1 1.00
     Exponent=  1.2901315743D-01 Coefficients=  1.0000000000D+00
 S 1 1.00
     Exponent=  6.4506578713D-02 Coefficients=  1.0000000000D+00
 P 7 1.00
     Exponent=  3.2357915258D+04 Coefficients=  5.0200000000D-03
     Exponent=  1.4381295670D+04 Coefficients=  2.0200000000D-03
     Exponent=  6.3916869645D+03 Coefficients=  1.8070000000D-02
     Exponent=  2.8407497620D+03 Coefficients=  3.6620000000D-02
     Exponent=  1.2625554498D+03 Coefficients=  1.1172000000D-01
     Exponent=  5.6113575545D+02 Coefficients=  2.5586000000D-01
     Exponent=  2.4939366909D+02 Coefficients=  4.2608000000D-01
 P 1 1.00
     Exponent=  1.1084163071D+02 Coefficients=  1.0000000000D+00
 P 1 1.00
     Exponent=  4.9262946981D+01 Coefficients=  1.0000000000D+00
 P 1 1.00
     Exponent=  2.1894643103D+01 Coefficients=  1.0000000000D+00
 P 1 1.00
     Exponent=  9.7309524900D+00 Coefficients=  1.0000000000D+00
 P 1 1.00
     Exponent=  4.3248677733D+00 Coefficients=  1.0000000000D+00
 P 1 1.00
     Exponent=  1.9221634548D+00 Coefficients=  1.0000000000D+00
 P 1 1.00
     Exponent=  8.5429486881D-01 Coefficients=  1.0000000000D+00
 P 1 1.00
     Exponent=  3.7968660836D-01 Coefficients=  1.0000000000D+00
 P 1 1.00
     Exponent=  1.6874960372D-01 Coefficients=  1.0000000000D+00
 P 1 1.00
     Exponent=  7.4999823874D-02 Coefficients=  1.0000000000D+00
 P 1 1.00
     Exponent=  3.3333255055D-02 Coefficients=  1.0000000000D+00
 D 5 1.00
     Exponent=  1.9119003508D+03 Coefficients=  4.3300000000D-03
     Exponent=  7.6476014031D+02 Coefficients=  1.7780000000D-02
     Exponent=  3.0590405613D+02 Coefficients=  8.9710000000D-02
     Exponent=  1.2236162245D+02 Coefficients=  3.1123000000D-01
     Exponent=  4.8944648980D+01 Coefficients=  5.3206000000D-01
 D 1 1.00
     Exponent=  1.9577859592D+01 Coefficients=  1.0000000000D+00
 D 1 1.00
     Exponent=  7.8311438368D+00 Coefficients=  1.0000000000D+00
 D 1 1.00
     Exponent=  3.1324575347D+00 Coefficients=  1.0000000000D+00
 D 1 1.00
     Exponent=  1.2529830139D+00 Coefficients=  1.0000000000D+00
 D 1 1.00
     Exponent=  5.0119320556D-01 Coefficients=  1.0000000000D+00
 D 1 1.00
     Exponent=  2.0047728222D-01 Coefficients=  1.0000000000D+00
 D 1 1.00
     Exponent=  8.0190912889D-02 Coefficients=  1.0000000000D+00
 D 1 1.00
     Exponent=  3.2076365156D-02 Coefficients=  1.0000000000D+00
 F 4 1.00
     Exponent=  8.2289680979D+01 Coefficients=  6.1870000000D-02
     Exponent=  2.9923520356D+01 Coefficients=  2.4823000000D-01
     Exponent=  1.0881280130D+01 Coefficients=  4.9956000000D-01
     Exponent=  3.9568291380D+00 Coefficients=  4.0380000000D-01
 F 1 1.00
     Exponent=  1.4388469593D+00 Coefficients=  1.0000000000D+00
 F 1 1.00
     Exponent=  5.2321707610D-01 Coefficients=  1.0000000000D+00
 G 1 1.00
     Exponent=  2.6700000000D+00 Coefficients=  1.0000000000D+00
 G 1 1.00
     Exponent=  9.0960000000D-01 Coefficients=  1.0000000000D+00
 ****
 Ernie: Thresh=  0.10000D-02 Tol=  0.10000D-05 Strict=F.
 There are  1204 symmetry adapted basis functions of A   symmetry.
 Integral buffers will be    131072 words long.
 Raffenetti 2 integral format.
 Two-electron integral symmetry is turned on.
  1204 basis functions,  1899 primitive gaussians,  1318 cartesian basis functions
   251 alpha electrons      251 beta electrons
       nuclear repulsion energy     15346.9885998223 Hartrees.
 IExCor= 1009 DFT=T Ex=PBE Corr=PBE ExCW=0 ScaHFX=  0.000000
 ScaDFX=  1.000000  1.000000  1.000000  1.000000 ScalE2=  1.000000  1.000000
 IRadAn=      0 IRanWt=     -1 IRanGd=            0 ICorTp=0
 NAtoms=   39 NActive=   39 NUniq=   39 SFac= 7.50D-01 NAtFMM=   80 NAOKFM=F Big=F
 ------------------------------------------------------------------------------
 Polarizable Continuum Model (PCM)
 =================================
 Model                : PCM.
 Atomic radii         : UFF (Universal Force Field).
 Polarization charges : Total charges.
 Charge compensation  : None.
 Solution method      : Matrix inversion.
 Cavity type          : Scaled VdW (van der Waals Surface) (Alpha=1.100).
 Cavity algorithm     : GePol (No added spheres)
                        Default sphere list used, NSphG=   39.
                        Lebedev-Laikov grids with approx.  5.0 points / Ang**2.
                        Smoothing algorithm: Karplus/York (Gamma=1.0000).
                        Polarization charges: spherical gaussians, with
                                              point-specific exponents (IZeta= 3).
                        Self-potential: point-specific (ISelfS= 7).
                        Self-field    : sphere-specific E.n sum rule (ISelfD= 2).
 Solvent              : Chloroform, Eps=   4.711300 Eps(inf)=   2.090627
 ------------------------------------------------------------------------------
 GePol: Number of generator spheres                  =      39
 GePol: Total number of spheres                      =      39
 GePol: Number of exposed spheres                    =      39 (100.00%)
 GePol: Number of points                             =    3762
 GePol: Average weight of points                     =       0.15
 GePol: Minimum weight of points                     =   0.37D-09
 GePol: Maximum weight of points                     =    0.21616
 GePol: Number of points with low weight             =     225
 GePol: Fraction of low-weight points (<1% of avg)   =       5.98%
 GePol: Cavity surface area                          =    563.786 Ang**2
 GePol: Cavity volume                                =    679.642 Ang**3
 Leave Link  301 at Sun Jul  5 02:09:01 2020, MaxMem=13421772800 cpu:       4.1
 (Enter /home/scr/programs/g09/l302.exe)
 NPDir=0 NMtPBC=     1 NCelOv=     1 NCel=       1 NClECP=     1 NCelD=      1
         NCelK=      1 NCelE2=     1 NClLst=     1 CellRange=     0.0.
 One-electron integrals computed using PRISM.
 NBasis=  1204 RedAO= T  NBF=  1204
 NBsUse=  1204 1.00D-06 NBFU=  1204
 Precomputing XC quadrature grid using
 IXCGrd= 2 IRadAn=           0 IRanWt=          -1 IRanGd=           0 AccXCQ= 1.00D-10.
 Defaulting to unpruned grid for atomic number  50.
 Defaulting to unpruned grid for atomic number  78.
 Defaulting to unpruned grid for atomic number  50.
 NRdTot=    2569 NPtTot=      378846 NUsed=      397349 NTot=      397381
 NSgBfM=  1148  1149  1153  1153  1155 NAtAll=    39    39.
 Leave Link  302 at Sun Jul  5 02:09:10 2020, MaxMem=13421772800 cpu:     264.8
 (Enter /home/scr/programs/g09/l308.exe)
 Leave Link  308 at Sun Jul  5 02:09:13 2020, MaxMem=13421772800 cpu:     106.5
 (Enter /home/scr/programs/g09/l303.exe)
 DipDrv:  MaxL=1.
 Leave Link  303 at Sun Jul  5 02:09:15 2020, MaxMem=13421772800 cpu:      40.8
 (Enter /home/scr/programs/g09/l401.exe)
 Harris functional with IExCor= 1009 diagonalized for initial guess.
 ExpMin= 1.08D-02 ExpMax= 2.16D+06 ExpMxC= 2.16D+06 IAcc=4 IRadAn=         0 AccDes= 0.00D+00
 HarFok:  IExCor= 1009 AccDes= 0.00D+00 IRadAn=         0 IDoV= 1
 ScaDFX=  1.000000  1.000000  1.000000  1.000000
 Defaulting to unpruned grid for atomic number  50.
 Defaulting to unpruned grid for atomic number  50.
 Defaulting to unpruned grid for atomic number  50.
 Defaulting to unpruned grid for atomic number  50.
 Defaulting to unpruned grid for atomic number  50.
 Defaulting to unpruned grid for atomic number  50.
 Defaulting to unpruned grid for atomic number  50.
 Defaulting to unpruned grid for atomic number  50.
 Defaulting to unpruned grid for atomic number  50.
 Defaulting to unpruned grid for atomic number  50.
 Defaulting to unpruned grid for atomic number  50.
 Defaulting to unpruned grid for atomic number  50.
 Defaulting to unpruned grid for atomic number  50.
 Defaulting to unpruned grid for atomic number  50.
 Defaulting to unpruned grid for atomic number  50.
 Defaulting to unpruned grid for atomic number  50.
 Defaulting to unpruned grid for atomic number  50.
 Defaulting to unpruned grid for atomic number  50.
 Defaulting to unpruned grid for atomic number  50.
 Defaulting to unpruned grid for atomic number  50.
 Defaulting to unpruned grid for atomic number  50.
 Defaulting to unpruned grid for atomic number  50.
 Defaulting to unpruned grid for atomic number  50.
 Defaulting to unpruned grid for atomic number  50.
 Defaulting to unpruned grid for atomic number  50.
 Defaulting to unpruned grid for atomic number  50.
 Defaulting to unpruned grid for atomic number  50.
 Defaulting to unpruned grid for atomic number  50.
 Defaulting to unpruned grid for atomic number  50.
 Defaulting to unpruned grid for atomic number  50.
 Defaulting to unpruned grid for atomic number  50.
 Defaulting to unpruned grid for atomic number  50.
 FoFCou: FMM=F IPFlag=           0 FMFlag=      100000 FMFlg1=           0
         NFxFlg=           0 DoJE=T BraDBF=F KetDBF=T FulRan=T
         Omega=  0.000000  0.000000  1.000000  0.000000  0.000000 ICntrl=     500 IOpCl=  0
         NMat0=    1 NMatS0=    1 NMatT0=    0 NMatD0=    1 NMtDS0=    0 NMtDT0=    0
         I1Cent=           4 NGrid=           0.
 Petite list used in FoFCou.
 Harris En= -43910.7902292410    
 Initial guess orbital symmetries:
       Occupied  (A) (A) (A) (A) (A) (A) (A) (A) (A) (A) (A) (A)
                 (A) (A) (A) (A) (A) (A) (A) (A) (A) (A) (A) (A)
                 (A) (A) (A) (A) (A) (A) (A) (A) (A) (A) (A) (A)
                 (A) (A) (A) (A) (A) (A) (A) (A) (A) (A) (A) (A)
                 (A) (A) (A) (A) (A) (A) (A) (A) (A) (A) (A) (A)
                 (A) (A) (A) (A) (A) (A) (A) (A) (A) (A) (A) (A)
                 (A) (A) (A) (A) (A) (A) (A) (A) (A) (A) (A) (A)
                 (A) (A) (A) (A) (A) (A) (A) (A) (A) (A) (A) (A)
                 (A) (A) (A) (A) (A) (A) (A) (A) (A) (A) (A) (A)
                 (A) (A) (A) (A) (A) (A) (A) (A) (A) (A) (A) (A)
                 (A) (A) (A) (A) (A) (A) (A) (A) (A) (A) (A) (A)
                 (A) (A) (A) (A) (A) (A) (A) (A) (A) (A) (A) (A)
                 (A) (A) (A) (A) (A) (A) (A) (A) (A) (A) (A) (A)
                 (A) (A) (A) (A) (A) (A) (A) (A) (A) (A) (A) (A)
                 (A) (A) (A) (A) (A) (A) (A) (A) (A) (A) (A) (A)
                 (A) (A) (A) (A) (A) (A) (A) (A) (A) (A) (A) (A)
                 (A) (A) (A) (A) (A) (A) (A) (A) (A) (A) (A) (A)
                 (A) (A) (A) (A) (A) (A) (A) (A) (A) (A) (A) (A)
                 (A) (A) (A) (A) (A) (A) (A) (A) (A) (A) (A) (A)
                 (A) (A) (A) (A) (A) (A) (A) (A) (A) (A) (A) (A)
                 (A) (A) (A) (A) (A) (A) (A) (A) (A) (A) (A)
       Virtual   (A) (A) (A) (A) (A) (A) (A) (A) (A) (A) (A) (A)
                 (A) (A) (A) (A) (A) (A) (A) (A) (A) (A) (A) (A)
                 (A) (A) (A) (A) (A) (A) (A) (A) (A) (A) (A) (A)
                 (A) (A) (A) (A) (A) (A) (A) (A) (A) (A) (A) (A)
                 (A) (A) (A) (A) (A) (A) (A) (A) (A) (A) (A) (A)
                 (A) (A) (A) (A) (A) (A) (A) (A) (A) (A) (A) (A)
                 (A) (A) (A) (A) (A) (A) (A) (A) (A) (A) (A) (A)
                 (A) (A) (A) (A) (A) (A) (A) (A) (A) (A) (A) (A)
                 (A) (A) (A) (A) (A) (A) (A) (A) (A) (A) (A) (A)
                 (A) (A) (A) (A) (A) (A) (A) (A) (A) (A) (A) (A)
                 (A) (A) (A) (A) (A) (A) (A) (A) (A) (A) (A) (A)
                 (A) (A) (A) (A) (A) (A) (A) (A) (A) (A) (A) (A)
                 (A) (A) (A) (A) (A) (A) (A) (A) (A) (A) (A) (A)
                 (A) (A) (A) (A) (A) (A) (A) (A) (A) (A) (A) (A)
                 (A) (A) (A) (A) (A) (A) (A) (A) (A) (A) (A) (A)
                 (A) (A) (A) (A) (A) (A) (A) (A) (A) (A) (A) (A)
                 (A) (A) (A) (A) (A) (A) (A) (A) (A) (A) (A) (A)
                 (A) (A) (A) (A) (A) (A) (A) (A) (A) (A) (A) (A)
                 (A) (A) (A) (A) (A) (A) (A) (A) (A) (A) (A) (A)
                 (A) (A) (A) (A) (A) (A) (A) (A) (A) (A) (A) (A)
                 (A) (A) (A) (A) (A) (A) (A) (A) (A) (A) (A) (A)
                 (A) (A) (A) (A) (A) (A) (A) (A) (A) (A) (A) (A)
                 (A) (A) (A) (A) (A) (A) (A) (A) (A) (A) (A) (A)
                 (A) (A) (A) (A) (A) (A) (A) (A) (A) (A) (A) (A)
                 (A) (A) (A) (A) (A) (A) (A) (A) (A) (A) (A) (A)
                 (A) (A) (A) (A) (A) (A) (A) (A) (A) (A) (A) (A)
                 (A) (A) (A) (A) (A) (A) (A) (A) (A) (A) (A) (A)
                 (A) (A) (A) (A) (A) (A) (A) (A) (A) (A) (A) (A)
                 (A) (A) (A) (A) (A) (A) (A) (A) (A) (A) (A) (A)
                 (A) (A) (A) (A) (A) (A) (A) (A) (A) (A) (A) (A)
                 (A) (A) (A) (A) (A) (A) (A) (A) (A) (A) (A) (A)
                 (A) (A) (A) (A) (A) (A) (A) (A) (A) (A) (A) (A)
                 (A) (A) (A) (A) (A) (A) (A) (A) (A) (A) (A) (A)
                 (A) (A) (A) (A) (A) (A) (A) (A) (A) (A) (A) (A)
                 (A) (A) (A) (A) (A) (A) (A) (A) (A) (A) (A) (A)
                 (A) (A) (A) (A) (A) (A) (A) (A) (A) (A) (A) (A)
                 (A) (A) (A) (A) (A) (A) (A) (A) (A) (A) (A) (A)
                 (A) (A) (A) (A) (A) (A) (A) (A) (A) (A) (A) (A)
                 (A) (A) (A) (A) (A) (A) (A) (A) (A) (A) (A) (A)
                 (A) (A) (A) (A) (A) (A) (A) (A) (A) (A) (A) (A)
                 (A) (A) (A) (A) (A) (A) (A) (A) (A) (A) (A) (A)
                 (A) (A) (A) (A) (A) (A) (A) (A) (A) (A) (A) (A)
                 (A) (A) (A) (A) (A) (A) (A) (A) (A) (A) (A) (A)
                 (A) (A) (A) (A) (A) (A) (A) (A) (A) (A) (A) (A)
                 (A) (A) (A) (A) (A) (A) (A) (A) (A) (A) (A) (A)
                 (A) (A) (A) (A) (A) (A) (A) (A) (A) (A) (A) (A)
                 (A) (A) (A) (A) (A) (A) (A) (A) (A) (A) (A) (A)
                 (A) (A) (A) (A) (A) (A) (A) (A) (A) (A) (A) (A)
                 (A) (A) (A) (A) (A) (A) (A) (A) (A) (A) (A) (A)
                 (A) (A) (A) (A) (A) (A) (A) (A) (A) (A) (A) (A)
                 (A) (A) (A) (A) (A) (A) (A) (A) (A) (A) (A) (A)
                 (A) (A) (A) (A) (A) (A) (A) (A) (A) (A) (A) (A)
                 (A) (A) (A) (A) (A) (A) (A) (A) (A) (A) (A) (A)
                 (A) (A) (A) (A) (A) (A) (A) (A) (A) (A) (A) (A)
                 (A) (A) (A) (A) (A) (A) (A) (A) (A) (A) (A) (A)
                 (A) (A) (A) (A) (A) (A) (A) (A) (A) (A) (A) (A)
                 (A) (A) (A) (A) (A) (A) (A) (A) (A) (A) (A) (A)
                 (A) (A) (A) (A) (A) (A) (A) (A) (A) (A) (A) (A)
                 (A) (A) (A) (A) (A) (A) (A) (A) (A) (A) (A) (A)
                 (A) (A) (A) (A) (A) (A) (A) (A) (A) (A) (A) (A)
                 (A) (A) (A) (A) (A) (A) (A) (A) (A) (A) (A) (A)
                 (A) (A) (A) (A) (A) (A) (A) (A) (A) (A) (A) (A)
                 (A) (A) (A) (A) (A) (A) (A) (A) (A) (A) (A) (A)
                 (A) (A) (A) (A) (A) (A) (A) (A) (A) (A) (A) (A)
                 (A) (A) (A) (A) (A) (A) (A) (A) (A) (A) (A) (A)
                 (A) (A) (A) (A) (A) (A) (A) (A) (A) (A) (A) (A)
                 (A) (A) (A) (A) (A) (A) (A) (A) (A) (A) (A) (A)
                 (A) (A) (A) (A) (A) (A) (A) (A) (A) (A) (A) (A)
                 (A) (A) (A) (A) (A) (A) (A) (A) (A) (A) (A) (A)
                 (A) (A) (A) (A) (A) (A) (A) (A) (A) (A) (A) (A)
                 (A) (A) (A) (A) (A) (A) (A) (A) (A) (A) (A) (A)
                 (A) (A) (A) (A) (A) (A) (A) (A) (A) (A) (A) (A)
                 (A) (A) (A) (A) (A) (A) (A) (A) (A) (A) (A) (A)
                 (A) (A) (A) (A) (A) (A) (A) (A) (A) (A) (A) (A)
                 (A) (A) (A) (A) (A) (A) (A) (A) (A) (A) (A) (A)
                 (A) (A) (A) (A) (A) (A) (A) (A) (A) (A) (A) (A)
                 (A) (A) (A) (A) (A) (A) (A) (A) (A) (A) (A) (A)
                 (A) (A) (A) (A) (A) (A) (A) (A) (A) (A) (A) (A)
                 (A) (A) (A) (A) (A) (A) (A) (A) (A) (A) (A) (A)
                 (A) (A) (A) (A) (A)
 The electronic state of the initial guess is 1-A.
 Leave Link  401 at Sun Jul  5 02:09:26 2020, MaxMem=13421772800 cpu:     356.8
 (Enter /home/scr/programs/g09/l502.exe)
 Closed shell SCF:
 Requested convergence on RMS density matrix=1.00D-04 within 500 cycles.
 Requested convergence on MAX density matrix=1.00D-02.
 Requested convergence on             energy=1.00D-02.
 No special actions if energy rises.
 Using DIIS extrapolation, IDIIS=  1040.
 Integral symmetry usage will be decided dynamically.
       396985 words used for storage of precomputed grid.
 IEnd=     5913855 IEndB=     5913855 NGot= 13421772800 MDV= 13417848388
 LenX= 13417848388 LenY= 13416109946
 Fock matrices will be formed incrementally for  20 cycles.

 Cycle   1  Pass 1  IDiag  1:
 FoFCou: FMM=F IPFlag=           0 FMFlag=      100000 FMFlg1=           0
         NFxFlg=           0 DoJE=T BraDBF=F KetDBF=F FulRan=T
         Omega=  0.000000  0.000000  1.000000  0.000000  0.000000 ICntrl=     500 IOpCl=  0
         NMat0=    1 NMatS0=    1 NMatT0=    0 NMatD0=    1 NMtDS0=    0 NMtDT0=    0
         I1Cent=           0 NGrid=           0.
 Symmetry not used in FoFCou.
 Defaulting to unpruned grid for atomic number  50.
 Defaulting to unpruned grid for atomic number  50.
 Defaulting to unpruned grid for atomic number  50.
 Defaulting to unpruned grid for atomic number  50.
 Defaulting to unpruned grid for atomic number  50.
 Defaulting to unpruned grid for atomic number  50.
 Defaulting to unpruned grid for atomic number  50.
 Defaulting to unpruned grid for atomic number  50.
 Defaulting to unpruned grid for atomic number  50.
 Defaulting to unpruned grid for atomic number  50.
 Defaulting to unpruned grid for atomic number  50.
 Defaulting to unpruned grid for atomic number  50.
 Defaulting to unpruned grid for atomic number  50.
 Defaulting to unpruned grid for atomic number  50.
 Defaulting to unpruned grid for atomic number  50.
 Defaulting to unpruned grid for atomic number  50.
 Defaulting to unpruned grid for atomic number  50.
 Defaulting to unpruned grid for atomic number  50.
 Defaulting to unpruned grid for atomic number  50.
 Defaulting to unpruned grid for atomic number  50.
 Defaulting to unpruned grid for atomic number  50.
 Defaulting to unpruned grid for atomic number  50.
 Defaulting to unpruned grid for atomic number  50.
 Defaulting to unpruned grid for atomic number  50.
 Defaulting to unpruned grid for atomic number  50.
 Defaulting to unpruned grid for atomic number  50.
 Defaulting to unpruned grid for atomic number  50.
 Defaulting to unpruned grid for atomic number  50.
 Defaulting to unpruned grid for atomic number  50.
 Defaulting to unpruned grid for atomic number  50.
 Defaulting to unpruned grid for atomic number  50.
 Defaulting to unpruned grid for atomic number  50.
 E= -43887.1376099051    
 DIIS: error= 6.35D-01 at cycle   1 NSaved=   1.
 NSaved= 1 IEnMin= 1 EnMin= -43887.1376099051     IErMin= 1 ErrMin= 6.35D-01
 ErrMax= 6.35D-01 EMaxC= 1.00D-01 BMatC= 3.88D+02 BMatP= 3.88D+02
 IDIUse=3 WtCom= 0.00D+00 WtEn= 1.00D+00
 Coeff-Com:  0.100D+01
 Coeff-En:   0.100D+01
 Coeff:      0.100D+01
 Gap=     0.113 Goal=   None    Shift=    0.000
 GapD=    0.113 DampG=1.000 DampE=0.125 DampFc=0.1250 IDamp=-1.
 Damping current iteration by 1.25D-01
 RMSDP=3.82D-03 MaxDP=5.34D-01              OVMax= 6.04D-01

 Cycle   2  Pass 1  IDiag  1:
 RMSU=  3.35D-04    CP:  1.00D+00
 E= -43888.3666725837     Delta-E=       -1.229062678554 Rises=F Damp=T
 DIIS: error= 5.52D-01 at cycle   2 NSaved=   2.
 NSaved= 2 IEnMin= 2 EnMin= -43888.3666725837     IErMin= 2 ErrMin= 5.52D-01
 ErrMax= 5.52D-01 EMaxC= 1.00D-01 BMatC= 2.79D+02 BMatP= 3.88D+02
 IDIUse=3 WtCom= 0.00D+00 WtEn= 1.00D+00
 Coeff-Com: -0.514D+01 0.614D+01
 Coeff-En:   0.000D+00 0.100D+01
 Coeff:      0.000D+00 0.100D+01
 Gap=    -0.004 Goal=   None    Shift=    0.000
 RMSDP=2.33D-03 MaxDP=2.90D-01 DE=-1.23D+00 OVMax= 6.38D-01

 Cycle   3  Pass 1  IDiag  1:
 RMSU=  1.11D-03    CP:  1.03D+00  3.00D+00
 E= -43887.8253991915     Delta-E=        0.541273392228 Rises=F Damp=F
 DIIS: error= 9.81D-02 at cycle   3 NSaved=   3.
 NSaved= 3 IEnMin= 2 EnMin= -43888.3666725837     IErMin= 3 ErrMin= 9.81D-02
 ErrMax= 9.81D-02 EMaxC= 1.00D-01 BMatC= 2.79D+01 BMatP= 2.79D+02
 IDIUse=3 WtCom= 1.92D-02 WtEn= 9.81D-01
 EnCoef did   100 forward-backward iterations
 Coeff-Com:  0.529D+01-0.590D+01 0.161D+01
 Coeff-En:   0.456D+00 0.151D-01 0.529D+00
 Coeff:      0.549D+00-0.987D-01 0.549D+00
 Gap=     0.111 Goal=   None    Shift=    0.000
 RMSDP=2.30D-03 MaxDP=3.08D-01 DE= 5.41D-01 OVMax= 7.27D-01

 Cycle   4  Pass 1  IDiag  1:
 RMSU=  1.17D-03    CP:  1.01D+00  2.05D+00  2.57D-01
 E= -43887.0091554434     Delta-E=        0.816243748020 Rises=F Damp=F
 DIIS: error= 5.16D-02 at cycle   4 NSaved=   4.
 NSaved= 4 IEnMin= 2 EnMin= -43888.3666725837     IErMin= 4 ErrMin= 5.16D-02
 ErrMax= 5.16D-02 EMaxC= 1.00D-01 BMatC= 7.21D+00 BMatP= 2.79D+01
 IDIUse=3 WtCom= 4.84D-01 WtEn= 5.16D-01
 EnCoef did     6 forward-backward iterations
 Coeff-Com: -0.224D+01 0.263D+01-0.112D+00 0.716D+00
 Coeff-En:   0.393D-01 0.000D+00 0.520D+00 0.440D+00
 Coeff:     -0.106D+01 0.127D+01 0.214D+00 0.574D+00
 Gap=     0.254 Goal=   None    Shift=    0.000
 RMSDP=2.63D-03 MaxDP=4.34D-01 DE= 8.16D-01 OVMax= 7.39D-01

 Cycle   5  Pass 1  IDiag  1:
 RMSU=  9.92D-04    CP:  1.01D+00  3.00D+00  4.26D-01 -2.47D-01
 E= -43889.6505201441     Delta-E=       -2.641364700656 Rises=F Damp=F
 DIIS: error= 3.67D-02 at cycle   5 NSaved=   5.
 NSaved= 5 IEnMin= 5 EnMin= -43889.6505201441     IErMin= 5 ErrMin= 3.67D-02
 ErrMax= 3.67D-02 EMaxC= 1.00D-01 BMatC= 3.96D+00 BMatP= 7.21D+00
 IDIUse=3 WtCom= 6.33D-01 WtEn= 3.67D-01
 EnCoef did     7 forward-backward iterations
 Coeff-Com: -0.197D+01 0.228D+01-0.258D+00 0.491D+00 0.461D+00
 Coeff-En:   0.000D+00 0.000D+00 0.207D-01 0.393D+00 0.586D+00
 Coeff:     -0.125D+01 0.144D+01-0.156D+00 0.455D+00 0.507D+00
 Gap=     0.124 Goal=   None    Shift=    0.000
 RMSDP=1.63D-03 MaxDP=2.90D-01 DE=-2.64D+00 OVMax= 3.47D-01

 Cycle   6  Pass 1  IDiag  1:
 RMSU=  5.55D-04    CP:  1.01D+00  3.00D+00  5.19D-01  2.13D-01  1.47D-01
 E= -43892.2086912963     Delta-E=       -2.558171152195 Rises=F Damp=F
 DIIS: error= 1.34D-02 at cycle   6 NSaved=   6.
 NSaved= 6 IEnMin= 6 EnMin= -43892.2086912963     IErMin= 6 ErrMin= 1.34D-02
 ErrMax= 1.34D-02 EMaxC= 1.00D-01 BMatC= 5.59D-01 BMatP= 3.96D+00
 IDIUse=3 WtCom= 8.66D-01 WtEn= 1.34D-01
 Coeff-Com: -0.438D+00 0.500D+00-0.127D+00 0.194D+00 0.117D+00 0.753D+00
 Coeff-En:   0.000D+00 0.000D+00 0.000D+00 0.113D+00 0.000D+00 0.887D+00
 Coeff:     -0.379D+00 0.433D+00-0.110D+00 0.183D+00 0.101D+00 0.771D+00
 Gap=     0.072 Goal=   None    Shift=    0.000
 RMSDP=7.66D-04 MaxDP=7.81D-02 DE=-2.56D+00 OVMax= 2.02D-01

 Cycle   7  Pass 1  IDiag  1:
 RMSU=  4.38D-04    CP:  1.01D+00  2.56D+00  4.07D-01  3.04D-01  1.02D-01
                    CP:  6.25D-01
 E= -43892.4501280514     Delta-E=       -0.241436755125 Rises=F Damp=F
 DIIS: error= 6.26D-03 at cycle   7 NSaved=   7.
 NSaved= 7 IEnMin= 7 EnMin= -43892.4501280514     IErMin= 7 ErrMin= 6.26D-03
 ErrMax= 6.26D-03 EMaxC= 1.00D-01 BMatC= 1.34D-01 BMatP= 5.59D-01
 IDIUse=3 WtCom= 9.37D-01 WtEn= 6.26D-02
 Coeff-Com:  0.235D-01-0.281D-01-0.170D-01 0.224D-01-0.205D-01 0.414D+00
 Coeff-Com:  0.606D+00
 Coeff-En:   0.000D+00 0.000D+00 0.000D+00 0.000D+00 0.000D+00 0.251D+00
 Coeff-En:   0.749D+00
 Coeff:      0.220D-01-0.264D-01-0.159D-01 0.210D-01-0.193D-01 0.403D+00
 Coeff:      0.615D+00
 Gap=     0.079 Goal=   None    Shift=    0.000
 RMSDP=4.48D-04 MaxDP=5.19D-02 DE=-2.41D-01 OVMax= 8.36D-02

 Cycle   8  Pass 1  IDiag  1:
 RMSU=  1.55D-04    CP:  1.01D+00  2.59D+00  4.51D-01  3.58D-01  4.23D-02
                    CP:  8.10D-01  4.62D-01
 E= -43892.5218048848     Delta-E=       -0.071676833380 Rises=F Damp=F
 DIIS: error= 2.56D-03 at cycle   8 NSaved=   8.
 NSaved= 8 IEnMin= 8 EnMin= -43892.5218048848     IErMin= 8 ErrMin= 2.56D-03
 ErrMax= 2.56D-03 EMaxC= 1.00D-01 BMatC= 3.30D-02 BMatP= 1.34D-01
 IDIUse=3 WtCom= 9.74D-01 WtEn= 2.56D-02
 Coeff-Com:  0.148D-01-0.176D-01-0.470D-02-0.161D-02-0.136D-01 0.226D+00
 Coeff-Com:  0.392D+00 0.405D+00
 Coeff-En:   0.000D+00 0.000D+00 0.000D+00 0.000D+00 0.000D+00 0.000D+00
 Coeff-En:   0.203D+00 0.797D+00
 Coeff:      0.144D-01-0.171D-01-0.458D-02-0.157D-02-0.132D-01 0.221D+00
 Coeff:      0.387D+00 0.415D+00
 Gap=     0.075 Goal=   None    Shift=    0.000
 RMSDP=1.78D-04 MaxDP=1.37D-02 DE=-7.17D-02 OVMax= 3.89D-02

 Cycle   9  Pass 1  IDiag  1:
 RMSU=  4.40D-05    CP:  1.01D+00  2.65D+00  4.52D-01  3.22D-01  6.38D-02
                    CP:  7.80D-01  6.36D-01  5.29D-01
 E= -43892.5504749940     Delta-E=       -0.028670109183 Rises=F Damp=F
 DIIS: error= 4.36D-04 at cycle   9 NSaved=   9.
 NSaved= 9 IEnMin= 9 EnMin= -43892.5504749940     IErMin= 9 ErrMin= 4.36D-04
 ErrMax= 4.36D-04 EMaxC= 1.00D-01 BMatC= 5.91D-04 BMatP= 3.30D-02
 IDIUse=3 WtCom= 9.96D-01 WtEn= 4.36D-03
 Coeff-Com:  0.204D-02-0.262D-02-0.260D-02-0.165D-02-0.429D-02 0.982D-01
 Coeff-Com:  0.168D+00 0.211D+00 0.532D+00
 Coeff-En:   0.000D+00 0.000D+00 0.000D+00 0.000D+00 0.000D+00 0.000D+00
 Coeff-En:   0.000D+00 0.000D+00 0.100D+01
 Coeff:      0.203D-02-0.261D-02-0.259D-02-0.164D-02-0.427D-02 0.978D-01
 Coeff:      0.167D+00 0.210D+00 0.535D+00
 Gap=     0.074 Goal=   None    Shift=    0.000
 RMSDP=4.18D-05 MaxDP=4.33D-03 DE=-2.87D-02 OVMax= 1.49D-02

 Cycle  10  Pass 1  IDiag  1:
 RMSU=  1.89D-05    CP:  1.01D+00  2.64D+00  4.52D-01  3.23D-01  6.55D-02
                    CP:  7.83D-01  6.20D-01  6.05D-01  5.92D-01
 E= -43892.5507951480     Delta-E=       -0.000320154068 Rises=F Damp=F
 DIIS: error= 2.91D-04 at cycle  10 NSaved=  10.
 NSaved=10 IEnMin=10 EnMin= -43892.5507951480     IErMin=10 ErrMin= 2.91D-04
 ErrMax= 2.91D-04 EMaxC= 1.00D-01 BMatC= 2.09D-04 BMatP= 5.91D-04
 IDIUse=3 WtCom= 9.97D-01 WtEn= 2.91D-03
 Coeff-Com:  0.369D-03-0.513D-03-0.579D-03-0.111D-02-0.158D-03 0.252D-01
 Coeff-Com:  0.391D-01 0.628D-01 0.386D+00 0.489D+00
 Coeff-En:   0.000D+00 0.000D+00 0.000D+00 0.000D+00 0.000D+00 0.000D+00
 Coeff-En:   0.000D+00 0.000D+00 0.286D+00 0.714D+00
 Coeff:      0.368D-03-0.511D-03-0.577D-03-0.110D-02-0.157D-03 0.252D-01
 Coeff:      0.390D-01 0.626D-01 0.386D+00 0.489D+00
 Gap=     0.074 Goal=   None    Shift=    0.000
 RMSDP=1.89D-05 MaxDP=1.97D-03 DE=-3.20D-04 OVMax= 7.19D-03

 Error on total polarization charges =  0.02915
 SCF Done:  E(RPBE-PBE) =  -43892.5507951     A.U. after   10 cycles
             Convg  =    0.1885D-04             -V/T =  2.0141
 KE= 4.328115359191D+04 PE=-1.347245700383D+05 EE= 3.220387705138D+04
 Leave Link  502 at Sun Jul  5 02:30:47 2020, MaxMem=13421772800 cpu:   39565.0
 (Enter /home/scr/programs/g09/l801.exe)
 Range of M.O.s used for correlation:     1  1204
 NBasis=  1204 NAE=   251 NBE=   251 NFC=     0 NFV=     0
 NROrb=   1204 NOA=   251 NOB=   251 NVA=   953 NVB=   953

 **** Warning!!: The largest alpha MO coefficient is  0.60910164D+02


 **** Warning!!: The smallest alpha delta epsilon is  0.74101479D-01

 Leave Link  801 at Sun Jul  5 02:30:47 2020, MaxMem=13421772800 cpu:       2.1
 (Enter /home/scr/programs/g09/l1002.exe)
 Minotr:  Closed shell wavefunction.
 NEqPCM:  Using equilibrium solvation (IEInf=0, Eps=   4.7113, EpsInf=   2.0906)
          Direct CPHF calculation.
          Differentiating once with respect to magnetic field using GIAOs.
          Electric field/nuclear overlap derivatives assumed to be zero.
          Requested convergence is 1.0D-08 RMS, and 1.0D-07 maximum.
          Secondary convergence is 1.0D-12 RMS, and 1.0D-12 maximum.
          NewPWx=T KeepS1=F KeepF1=F KeepIn=T MapXYZ=F SortEE=F KeepMc=T.
          MDV=   13421772484 using IRadAn=       2.
 Defaulting to unpruned grid for atomic number  50.
 Defaulting to unpruned grid for atomic number  78.
 Defaulting to unpruned grid for atomic number  50.
 Generate precomputed XC quadrature information.
          Solving linear equations simultaneously, MaxMat=       0.
 FoFCou: FMM=F IPFlag=           0 FMFlag=    10101102 FMFlg1=           0
         NFxFlg=    40000000 DoJE=F BraDBF=F KetDBF=T FulRan=T
         Omega=  0.000000  0.000000  1.000000  0.000000  0.000000 ICntrl=    6100 IOpCl=  0
         NMat0=    1 NMatS0=    1 NMatT0=    0 NMatD0=    1 NMtDS0=    0 NMtDT0=    0
         I1Cent=           7 NGrid=        3801.
 Symmetry not used in FoFCou.
 Defaulting to unpruned grid for atomic number  50.
 Defaulting to unpruned grid for atomic number  50.
 Defaulting to unpruned grid for atomic number  50.
 Defaulting to unpruned grid for atomic number  50.
 Defaulting to unpruned grid for atomic number  50.
 Defaulting to unpruned grid for atomic number  50.
 Defaulting to unpruned grid for atomic number  50.
 Defaulting to unpruned grid for atomic number  50.
 Defaulting to unpruned grid for atomic number  50.
 Defaulting to unpruned grid for atomic number  50.
 Defaulting to unpruned grid for atomic number  50.
 Defaulting to unpruned grid for atomic number  50.
 Defaulting to unpruned grid for atomic number  50.
 Defaulting to unpruned grid for atomic number  50.
 Defaulting to unpruned grid for atomic number  50.
 Defaulting to unpruned grid for atomic number  50.
 Defaulting to unpruned grid for atomic number  50.
 Defaulting to unpruned grid for atomic number  50.
 Defaulting to unpruned grid for atomic number  50.
 Defaulting to unpruned grid for atomic number  50.
 Defaulting to unpruned grid for atomic number  50.
 Defaulting to unpruned grid for atomic number  50.
 Defaulting to unpruned grid for atomic number  50.
 Defaulting to unpruned grid for atomic number  50.
 Defaulting to unpruned grid for atomic number  50.
 Defaulting to unpruned grid for atomic number  50.
 Defaulting to unpruned grid for atomic number  50.
 Defaulting to unpruned grid for atomic number  50.
 Defaulting to unpruned grid for atomic number  50.
 Defaulting to unpruned grid for atomic number  50.
 Defaulting to unpruned grid for atomic number  50.
 Defaulting to unpruned grid for atomic number  50.
          There are     3 degrees of freedom in the 1st order CPHF.  IDoFFX=0.
      3 vectors produced by pass  0 Test12= 7.97D-12 3.33D-08 XBig12= 1.17D+02 2.11D+00.
 AX will form     3 AO Fock derivatives at one time.
 Inverted reduced A of dimension     3 with in-core refinement.
 Calculating GIAO nuclear magnetic shielding tensors.
 SCF GIAO Magnetic shielding tensor (ppm):
  1  Sn   Isotropic =  2122.3407   Anisotropy =   811.6710
   XX=  1928.8806   YX=   337.1085   ZX=    -6.7994
   XY=   328.4178   YY=  2512.4895   ZY=    -9.4030
   XZ=    -4.9753   YZ=   -10.9172   ZZ=  1925.6519
   Eigenvalues:  1778.0911  1925.4762  2663.4547
  2  Sn   Isotropic =  2116.4615   Anisotropy =   825.4472
   XX=  2654.7184   YX=   104.4962   ZX=    18.0423
   XY=    98.6321   YY=  1775.6155   ZY=    -3.3615
   XZ=    19.8017   YZ=    -1.1375   ZZ=  1919.0507
   Eigenvalues:  1763.9103  1918.7146  2666.7597
  3  Cl   Isotropic =   714.6721   Anisotropy =   391.9458
   XX=   752.4631   YX=  -204.3123   ZX=    11.1666
   XY=  -219.7331   YY=   773.4203   ZY=   -10.5449
   XZ=    10.7290   YZ=   -13.7300   ZZ=   618.1328
   Eigenvalues:   550.6573   617.3896   975.9692
  4  Cl   Isotropic =   735.5064   Anisotropy =   326.3157
   XX=   696.4748   YX=    77.3178   ZX=  -150.3533
   XY=    84.3492   YY=   729.5782   ZY=   -81.4067
   XZ=  -143.9983   YZ=   -90.1045   ZZ=   780.4662
   Eigenvalues:   583.7832   669.6857   953.0502
  5  Cl   Isotropic =   727.9637   Anisotropy =   333.9446
   XX=   666.7596   YX=    81.4065   ZX=   140.8876
   XY=   101.1877   YY=   727.5696   ZY=    85.9216
   XZ=   131.2923   YZ=    98.9164   ZZ=   789.5618
   Eigenvalues:   571.9933   661.3043   950.5934
  6  Cl   Isotropic =   709.5752   Anisotropy =   397.8825
   XX=   954.4071   YX=    97.6779   ZX=   -17.7460
   XY=    79.6264   YY=   566.8103   ZY=    -7.3945
   XZ=   -20.4652   YZ=    -6.8211   ZZ=   607.5082
   Eigenvalues:   547.3561   606.5393   974.8302
  7  Cl   Isotropic =   731.2937   Anisotropy =   334.7721
   XX=   638.1080   YX=   -81.8856   ZX=     2.7753
   XY=   -65.2570   YY=   771.4607   ZY=  -165.9929
   XZ=    16.8001   YZ=  -165.1968   ZZ=   784.3124
   Eigenvalues:   573.5867   665.8193   954.4751
  8  Cl   Isotropic =   734.6616   Anisotropy =   326.3961
   XX=   645.9813   YX=   -56.8086   ZX=    10.4286
   XY=   -45.6486   YY=   766.1966   ZY=   170.3635
   XZ=     0.3020   YZ=   168.8484   ZZ=   791.8070
   Eigenvalues:   581.4784   670.2474   952.2590
  9  As   Isotropic =  1056.4455   Anisotropy =   174.8377
   XX=   996.4923   YX=   -31.4348   ZX=    -1.6330
   XY=    34.7041   YY=   999.9069   ZY=    -1.5021
   XZ=    -3.1299   YZ=    -3.3429   ZZ=  1172.9373
   Eigenvalues:   995.8261  1000.5064  1173.0040
 10  C    Isotropic =   157.3633   Anisotropy =    43.7336
   XX=   164.3565   YX=    10.6175   ZX=    20.3774
   XY=    11.4740   YY=   142.9625   ZY=     4.5664
   XZ=    17.7310   YZ=     5.0200   ZZ=   164.7708
   Eigenvalues:   137.6783   147.8925   186.5190
 11  H    Isotropic =    29.2659   Anisotropy =     8.4195
   XX=    25.4811   YX=     3.5384   ZX=     3.8709
   XY=     3.0171   YY=    33.6224   ZY=    -0.8595
   XZ=     3.8161   YZ=    -0.3758   ZZ=    28.6942
   Eigenvalues:    22.0909    30.8279    34.8789
 12  H    Isotropic =    30.1449   Anisotropy =    15.2562
   XX=    26.9750   YX=     0.8292   ZX=     5.4762
   XY=     0.9212   YY=    24.9730   ZY=     0.7671
   XZ=     4.2635   YZ=     0.3651   ZZ=    38.4867
   Eigenvalues:    24.4196    25.6994    40.3156
 13  H    Isotropic =    28.9584   Anisotropy =     7.9796
   XX=    32.3934   YX=    -3.7789   ZX=     2.2351
   XY=    -3.1998   YY=    27.1822   ZY=     2.9283
   XZ=     2.5521   YZ=     2.7680   ZZ=    27.2997
   Eigenvalues:    22.6047    29.9923    34.2782
 14  C    Isotropic =   157.4655   Anisotropy =    43.6250
   XX=   158.1520   YX=   -15.0241   ZX=   -14.1267
   XY=   -14.0515   YY=   149.5553   ZY=    15.6309
   XZ=   -13.0510   YZ=    13.0611   ZZ=   164.6893
   Eigenvalues:   137.9194   147.9283   186.5489
 15  H    Isotropic =    29.3694   Anisotropy =     8.3128
   XX=    34.4948   YX=     1.8481   ZX=    -1.2511
   XY=     1.3390   YY=    24.7340   ZY=     3.6994
   XZ=    -1.6559   YZ=     3.4705   ZZ=    28.8794
   Eigenvalues:    22.3010    30.8960    34.9112
 16  H    Isotropic =    30.1352   Anisotropy =    15.2927
   XX=    26.2716   YX=    -1.3758   ZX=    -3.4955
   XY=    -1.2648   YY=    25.7217   ZY=     4.4545
   XZ=    -2.5221   YZ=     3.5720   ZZ=    38.4124
   Eigenvalues:    24.4006    25.6748    40.3304
 17  H    Isotropic =    29.0147   Anisotropy =     7.8411
   XX=    25.7192   YX=    -0.7724   ZX=    -3.6233
   XY=    -0.2670   YY=    34.0323   ZY=     0.5916
   XZ=    -3.6365   YZ=     0.9281   ZZ=    27.2927
   Eigenvalues:    22.7913    30.0108    34.2421
 18  C    Isotropic =   157.6204   Anisotropy =    43.4028
   XX=   139.5635   YX=     3.1414   ZX=    -6.2810
   XY=     4.2772   YY=   168.6193   ZY=   -19.8644
   XZ=    -4.5206   YZ=   -18.0148   ZZ=   164.6784
   Eigenvalues:   138.4493   147.8563   186.5556
 19  H    Isotropic =    29.3604   Anisotropy =     8.3509
   XX=    28.6756   YX=    -4.7647   ZX=    -2.6680
   XY=    -5.3199   YY=    30.6390   ZY=    -2.9607
   XZ=    -2.2448   YZ=    -3.1497   ZZ=    28.7666
   Eigenvalues:    22.2437    30.9098    34.9276
 20  H    Isotropic =    30.1487   Anisotropy =    15.2822
   XX=    24.7231   YX=     0.4002   ZX=    -2.0652
   XY=     0.5042   YY=    27.2789   ZY=    -5.2346
   XZ=    -1.7626   YZ=    -3.9558   ZZ=    38.4443
   Eigenvalues:    24.4384    25.6710    40.3369
 21  H    Isotropic =    28.9829   Anisotropy =     8.0699
   XX=    31.6411   YX=     3.7786   ZX=     1.4775
   XY=     4.2402   YY=    28.0751   ZY=    -3.4381
   XZ=     1.1762   YZ=    -3.6159   ZZ=    27.2324
   Eigenvalues:    22.5452    30.0406    34.3628
 22  Pt   Isotropic =  3586.5645   Anisotropy =   571.0273
   XX=  3392.6052   YX=    68.8684   ZX=    -3.7045
   XY=   -71.7648   YY=  3399.8553   ZY=    -5.5353
   XZ=    -2.3591   YZ=     4.6219   ZZ=  3967.2330
   Eigenvalues:  3392.3103  3400.1339  3967.2493
 23  As   Isotropic =  1062.0260   Anisotropy =   159.6147
   XX=  1009.0074   YX=   -36.6524   ZX=     0.0602
   XY=    40.9292   YY=  1008.7632   ZY=     4.6795
   XZ=     2.7170   YZ=     3.9042   ZZ=  1168.3073
   Eigenvalues:  1006.7137  1010.9285  1168.4358
 24  C    Isotropic =   157.6818   Anisotropy =    42.0193
   XX=   140.7868   YX=     1.9139   ZX=     2.8888
   XY=     3.3849   YY=   169.1951   ZY=    19.5400
   XZ=     2.4755   YZ=    18.4711   ZZ=   163.0635
   Eigenvalues:   140.4564   146.8943   185.6947
 25  H    Isotropic =    30.0125   Anisotropy =    14.9866
   XX=    25.1658   YX=     0.2879   ZX=     2.8158
   XY=     0.4546   YY=    27.2074   ZY=     5.3245
   XZ=     3.0019   YZ=     4.0422   ZZ=    37.6642
   Eigenvalues:    24.2290    25.8048    40.0035
 26  H    Isotropic =    29.1400   Anisotropy =     8.6412
   XX=    29.5001   YX=    -4.9294   ZX=     1.5322
   XY=    -5.3625   YY=    28.9593   ZY=     3.5431
   XZ=     0.8186   YZ=     3.5556   ZZ=    28.9605
   Eigenvalues:    22.3014    30.2178    34.9008
 27  H    Isotropic =    29.1723   Anisotropy =     6.5912
   XX=    29.3252   YX=     3.2572   ZX=    -1.0009
   XY=     3.6038   YY=    30.2513   ZY=     2.2724
   XZ=    -0.7768   YZ=     2.5945   ZZ=    27.9405
   Eigenvalues:    24.6619    29.2886    33.5665
 28  C    Isotropic =   157.5660   Anisotropy =    41.3522
   XX=   164.2436   YX=     9.8140   ZX=   -18.9027
   XY=    11.6565   YY=   146.0769   ZY=    -6.1780
   XZ=   -16.9718   YZ=    -6.7999   ZZ=   162.3774
   Eigenvalues:   140.7876   146.7762   185.1341
 29  H    Isotropic =    30.0216   Anisotropy =    15.1057
   XX=    26.8521   YX=     0.8501   ZX=    -5.8254
   XY=     0.9796   YY=    25.2327   ZY=    -0.6159
   XZ=    -4.6715   YZ=    -0.0268   ZZ=    37.9799
   Eigenvalues:    24.2232    25.7494    40.0921
 30  H    Isotropic =    29.1543   Anisotropy =     8.3529
   XX=    24.7673   YX=     2.8205   ZX=    -3.7738
   XY=     2.4800   YY=    33.7655   ZY=     0.2056
   XZ=    -3.4792   YZ=    -0.3977   ZZ=    28.9302
   Eigenvalues:    22.2219    30.5182    34.7230
 31  H    Isotropic =    29.0419   Anisotropy =     7.1029
   XX=    32.9580   YX=    -2.1867   ZX=    -1.7031
   XY=    -1.7117   YY=    26.5989   ZY=    -2.3048
   XZ=    -2.0451   YZ=    -2.1958   ZZ=    27.5688
   Eigenvalues:    23.9733    29.3752    33.7771
 32  C    Isotropic =   157.7860   Anisotropy =    42.1385
   XX=   159.3223   YX=   -14.5794   ZX=    14.9856
   XY=   -13.4619   YY=   150.5677   ZY=   -12.9081
   XZ=    14.3238   YZ=   -11.6045   ZZ=   163.4680
   Eigenvalues:   140.1280   147.3516   185.8783
 33  H    Isotropic =    30.0559   Anisotropy =    15.0643
   XX=    26.4135   YX=    -1.1731   ZX=     3.3091
   XY=    -1.0349   YY=    25.8903   ZY=    -4.9966
   XZ=     2.0746   YZ=    -4.3834   ZZ=    37.8638
   Eigenvalues:    24.2549    25.8139    40.0988
 34  H    Isotropic =    29.0703   Anisotropy =     8.4387
   XX=    33.6047   YX=     2.8872   ZX=     1.9928
   XY=     2.4927   YY=    24.7887   ZY=    -3.4109
   XZ=     2.3704   YZ=    -2.8836   ZZ=    28.8174
   Eigenvalues:    22.0572    30.4576    34.6961
 35  H    Isotropic =    29.1208   Anisotropy =     6.9649
   XX=    26.6338   YX=    -2.1104   ZX=     2.7365
   XY=    -1.6867   YY=    32.9565   ZY=    -0.3064
   XZ=     2.8633   YZ=    -0.6338   ZZ=    27.7720
   Eigenvalues:    24.1812    29.4170    33.7641
 36  Sn   Isotropic =  2121.9631   Anisotropy =   817.3552
   XX=  2093.9511   YX=  -422.1508   ZX=    -7.0312
   XY=  -435.7096   YY=  2345.4321   ZY=     8.7182
[...]
    31  H   -0.000636  -0.000006  -0.000029   0.000000   0.000000   0.000000
    32  C   -0.007119   0.000181   0.000478  -0.000003   0.000000   0.000000
    33  H   -0.000189   0.000011   0.000207   0.000000   0.000000   0.000000
    34  H   -0.000455   0.000011   0.000260   0.000000   0.000000   0.000000
    35  H    0.009899   0.000006  -0.000010   0.000000   0.000000   0.000000
    36  Sn  -0.003054  -0.002577   0.020971  -0.003072   0.003815  -0.000045
    37  Cl   0.000039  -0.000063  -0.000257   0.000257   0.000029   0.000011
    38  Cl  -0.000067  -0.000066   0.003127  -0.000222   0.000036   0.000025
    39  Cl  -0.000118   0.000043   0.022007  -0.009989  -0.000448  -0.000312
             13         14         15         16         17         18
     1  Sn   0.005143  -0.002750   0.003796  -0.000171  -0.002425   0.005211
     2  Sn  -0.000131  -0.014661   0.003328  -0.004891   0.004477  -0.003150
     3  Cl  -0.000001  -0.000550  -0.000874  -0.000340   0.000245  -0.000190
     4  Cl  -0.000038  -0.005860   0.008190  -0.000374  -0.000553  -0.009758
     5  Cl  -0.000004  -0.000132  -0.000038  -0.000009   0.000001   0.000299
     6  Cl   0.000212  -0.000203   0.000033   0.000023  -0.000109  -0.000127
     7  Cl   0.000001   0.000263   0.000034   0.000011   0.000008  -0.000113
     8  Cl  -0.000633  -0.009280  -0.000460  -0.000253   0.013299   0.000035
     9  As  -0.004879   0.235973  -0.007236   0.016023  -0.005788   0.234438
    10  C    0.387728  -0.072627   0.000830  -0.002184  -0.001096  -0.073358
    11  H    0.009782  -0.000236   0.000003  -0.000035   0.000440   0.000849
    12  H    0.006248  -0.004170   0.000025   0.001066   0.000016  -0.002311
    13  H    0.409214   0.001198  -0.000003   0.000012   0.000006  -0.001032
    14  C    0.001198   5.237186   0.387497   0.385040   0.387866  -0.072686
    15  H   -0.000003   0.387497   0.416487   0.006869   0.009734  -0.000319
    16  H    0.000012   0.385040   0.006869   0.421811   0.006009  -0.004054
    17  H    0.000006   0.387866   0.009734   0.006009   0.409352   0.001230
    18  C   -0.001032  -0.072686  -0.000319  -0.004054   0.001230   5.236490
    19  H    0.000424   0.000846   0.000003   0.000024  -0.000003   0.387531
    20  H    0.000018  -0.002288  -0.000040   0.001060   0.000011   0.384500
    21  H    0.000006  -0.001087   0.000433   0.000018   0.000006   0.388185
    22  Pt   0.010977   0.002272   0.015718   0.005087   0.011876   0.003089
    23  As   0.000020   0.000475   0.000254   0.000226   0.000010   0.000371
    24  C    0.000000  -0.000003   0.000000   0.000000   0.000000  -0.000015
    25  H    0.000000   0.000000   0.000000   0.000000   0.000000   0.000000
    26  H    0.000000   0.000000   0.000000   0.000000   0.000000   0.000000
    27  H    0.000000   0.000000   0.000000   0.000000   0.000000   0.000000
    28  C    0.000000  -0.000005   0.000000   0.000000   0.000000  -0.000003
    29  H    0.000000   0.000000   0.000000   0.000000   0.000000   0.000000
    30  H    0.000000   0.000000   0.000000   0.000000   0.000000   0.000000
    31  H    0.000000   0.000000   0.000000   0.000000   0.000000   0.000000
    32  C    0.000000  -0.000015   0.000000   0.000000   0.000000  -0.000005
    33  H    0.000000   0.000000   0.000000   0.000000   0.000000   0.000000
    34  H    0.000000   0.000000   0.000000   0.000000   0.000000   0.000000
    35  H    0.000000   0.000000   0.000000   0.000000   0.000000   0.000000
    36  Sn  -0.002726   0.005583  -0.001379   0.002925  -0.000186  -0.013552
    37  Cl   0.000007  -0.000108   0.000001   0.000002  -0.000004  -0.000091
    38  Cl  -0.000119  -0.000092   0.000002   0.000013  -0.000001  -0.000658
    39  Cl   0.013905   0.000054  -0.000001   0.000043  -0.000039  -0.006171
             19         20         21         22         23         24
     1  Sn  -0.001599   0.002878  -0.000159   0.376075   0.008239   0.005446
     2  Sn   0.003861  -0.000004  -0.002281   0.373423   0.008628  -0.003430
     3  Cl   0.000036   0.000025  -0.000098   0.003601   0.002980  -0.000143
     4  Cl  -0.000463  -0.000282   0.014068  -0.032472   0.000068   0.000168
     5  Cl   0.000033   0.000012   0.000031  -0.029974   0.031580  -0.006739
     6  Cl   0.000002   0.000013   0.000000   0.005378   0.002542  -0.000171
     7  Cl   0.000002   0.000002  -0.000004  -0.028159   0.027138  -0.000033
     8  Cl   0.000003   0.000044  -0.000041  -0.032945   0.000226  -0.000090
     9  As  -0.006836   0.016666  -0.005285  -0.180353   0.001944   0.000442
    10  C   -0.000307  -0.004125   0.001216   0.001433   0.000348  -0.000006
    11  H    0.000003   0.000026  -0.000003   0.016093   0.000243   0.000000
    12  H   -0.000040   0.001089   0.000013   0.005039   0.000222   0.000000
    13  H    0.000424   0.000018   0.000006   0.010977   0.000020   0.000000
    14  C    0.000846  -0.002288  -0.001087   0.002272   0.000475  -0.000003
    15  H    0.000003  -0.000040   0.000433   0.015718   0.000254   0.000000
    16  H    0.000024   0.001060   0.000018   0.005087   0.000226   0.000000
    17  H   -0.000003   0.000011   0.000006   0.011876   0.000010   0.000000
    18  C    0.387531   0.384500   0.388185   0.003089   0.000371  -0.000015
    19  H    0.415752   0.006963   0.009796   0.015445   0.000233   0.000000
    20  H    0.006963   0.421707   0.006182   0.005048   0.000225   0.000000
    21  H    0.009796   0.006182   0.408818   0.011284   0.000023   0.000000
    22  Pt   0.015445   0.005048   0.011284  78.916530  -0.164893   0.008177
    23  As   0.000233   0.000225   0.000023  -0.164893  31.859134   0.229258
    24  C    0.000000   0.000000   0.000000   0.008177   0.229258   5.230949
    25  H    0.000000   0.000000   0.000000   0.004118   0.015189   0.384980
    26  H    0.000000   0.000000   0.000000   0.012174  -0.003200   0.381584
    27  H    0.000000   0.000000   0.000000   0.012017  -0.003689   0.383277
    28  C    0.000000   0.000000   0.000000   0.005011   0.233076  -0.065764
    29  H    0.000000   0.000000   0.000000   0.004531   0.015706  -0.001934
    30  H    0.000000   0.000000   0.000000   0.012502  -0.004726   0.000601
    31  H    0.000000   0.000000   0.000000   0.009862  -0.003050  -0.001503
    32  C    0.000000   0.000000   0.000000   0.004512   0.232686  -0.064324
    33  H    0.000000   0.000000   0.000000   0.004332   0.015726  -0.004544
    34  H    0.000000   0.000000   0.000000   0.011911  -0.003122  -0.000812
    35  H    0.000000   0.000000   0.000000   0.010289  -0.002780   0.001094
    36  Sn   0.003243  -0.004961   0.004160   0.371913   0.007191  -0.012165
    37  Cl  -0.000035  -0.000009  -0.000002  -0.024908   0.025400  -0.008146
    38  Cl  -0.000791  -0.000341   0.000231   0.004339   0.003037   0.000656
    39  Cl   0.008698  -0.000358  -0.000566  -0.030889   0.000151  -0.000154
             25         26         27         28         29         30
     1  Sn   0.002918  -0.001110  -0.000052  -0.014000  -0.004284   0.004414
     2  Sn  -0.000123   0.003223  -0.001737   0.005909   0.002764  -0.001567
     3  Cl   0.000027   0.000035  -0.000093  -0.000120   0.000018  -0.000009
     4  Cl   0.000012   0.000013   0.000004  -0.000094   0.000001   0.000001
     5  Cl  -0.000136  -0.000550   0.009163   0.000088   0.000077   0.000007
     6  Cl   0.000021  -0.000021   0.000003   0.001237  -0.000676  -0.000733
     7  Cl   0.000061   0.000002  -0.000031  -0.008382  -0.000611   0.010307
     8  Cl   0.000001   0.000001  -0.000003  -0.000119  -0.000012   0.000045
     9  As   0.000202   0.000305  -0.000017   0.000417   0.000207   0.000254
    10  C    0.000000   0.000000   0.000000  -0.000015   0.000000   0.000000
    11  H    0.000000   0.000000   0.000000   0.000000   0.000000   0.000000
    12  H    0.000000   0.000000   0.000000   0.000000   0.000000   0.000000
    13  H    0.000000   0.000000   0.000000   0.000000   0.000000   0.000000
    14  C    0.000000   0.000000   0.000000  -0.000005   0.000000   0.000000
    15  H    0.000000   0.000000   0.000000   0.000000   0.000000   0.000000
    16  H    0.000000   0.000000   0.000000   0.000000   0.000000   0.000000
    17  H    0.000000   0.000000   0.000000   0.000000   0.000000   0.000000
    18  C    0.000000   0.000000   0.000000  -0.000003   0.000000   0.000000
    19  H    0.000000   0.000000   0.000000   0.000000   0.000000   0.000000
    20  H    0.000000   0.000000   0.000000   0.000000   0.000000   0.000000
    21  H    0.000000   0.000000   0.000000   0.000000   0.000000   0.000000
    22  Pt   0.004118   0.012174   0.012017   0.005011   0.004531   0.012502
    23  As   0.015189  -0.003200  -0.003689   0.233076   0.015706  -0.004726
    24  C    0.384980   0.381584   0.383277  -0.065764  -0.001934   0.000601
    25  H    0.427323   0.006879   0.005470  -0.004355   0.000765   0.000028
    26  H    0.006879   0.417150   0.008949  -0.001025   0.000069   0.000009
    27  H    0.005470   0.008949   0.415938   0.001114   0.000010  -0.000003
    28  C   -0.004355  -0.001025   0.001114   5.235994   0.383917   0.385134
    29  H    0.000765   0.000069   0.000010   0.383917   0.426213   0.007303
    30  H    0.000028   0.000009  -0.000003   0.385134   0.007303   0.415519
    31  H    0.000038   0.000409   0.000010   0.385228   0.005950   0.008812
    32  C   -0.001855   0.000525  -0.001301  -0.067169  -0.004672  -0.000438
    33  H    0.000775   0.000041   0.000037  -0.001915   0.000858   0.000027
    34  H    0.000074   0.000007   0.000274   0.000551   0.000039   0.000006
    35  H    0.000017  -0.000002   0.000006  -0.001327   0.000037   0.000332
    36  Sn  -0.004065   0.004167   0.004388  -0.003072   0.000622   0.003021
    37  Cl  -0.000623   0.010012  -0.000662  -0.007777  -0.000231  -0.000434
    38  Cl  -0.000619  -0.001194   0.001462  -0.000147   0.000032   0.000035
    39  Cl  -0.000010   0.000046  -0.000006   0.000171   0.000011   0.000012
             31         32         33         34         35         36
     1  Sn   0.003869  -0.002554   0.000374   0.002780  -0.001516  -0.038163
     2  Sn   0.000116  -0.013105  -0.004491   0.004152   0.004423  -0.042773
     3  Cl   0.000002   0.000911  -0.000590  -0.001005   0.001086  -0.002376
     4  Cl  -0.000003  -0.000150  -0.000011   0.000040  -0.000001  -0.010943
     5  Cl  -0.000043  -0.009861  -0.000637   0.010955  -0.000704  -0.011600
     6  Cl   0.001323  -0.000071   0.000029   0.000037  -0.000100  -0.009244
     7  Cl  -0.000636  -0.007119  -0.000189  -0.000455   0.009899  -0.003054
     8  Cl  -0.000006   0.000181   0.000011   0.000011   0.000006  -0.002577
     9  As  -0.000029   0.000478   0.000207   0.000260  -0.000010   0.020971
    10  C    0.000000  -0.000003   0.000000   0.000000   0.000000  -0.003072
    11  H    0.000000   0.000000   0.000000   0.000000   0.000000   0.003815
    12  H    0.000000   0.000000   0.000000   0.000000   0.000000  -0.000045
    13  H    0.000000   0.000000   0.000000   0.000000   0.000000  -0.002726
    14  C    0.000000  -0.000015   0.000000   0.000000   0.000000   0.005583
    15  H    0.000000   0.000000   0.000000   0.000000   0.000000  -0.001379
    16  H    0.000000   0.000000   0.000000   0.000000   0.000000   0.002925
    17  H    0.000000   0.000000   0.000000   0.000000   0.000000  -0.000186
    18  C    0.000000  -0.000005   0.000000   0.000000   0.000000  -0.013552
    19  H    0.000000   0.000000   0.000000   0.000000   0.000000   0.003243
    20  H    0.000000   0.000000   0.000000   0.000000   0.000000  -0.004961
    21  H    0.000000   0.000000   0.000000   0.000000   0.000000   0.004160
    22  Pt   0.009862   0.004512   0.004332   0.011911   0.010289   0.371913
    23  As  -0.003050   0.232686   0.015726  -0.003122  -0.002780   0.007191
    24  C   -0.001503  -0.064324  -0.004544  -0.000812   0.001094  -0.012165
    25  H    0.000038  -0.001855   0.000775   0.000074   0.000017  -0.004065
    26  H    0.000409   0.000525   0.000041   0.000007  -0.000002   0.004167
    27  H    0.000010  -0.001301   0.000037   0.000274   0.000006   0.004388
    28  C    0.385228  -0.067169  -0.001915   0.000551  -0.001327  -0.003072
    29  H    0.005950  -0.004672   0.000858   0.000039   0.000037   0.000622
    30  H    0.008812  -0.000438   0.000027   0.000006   0.000332   0.003021
    31  H    0.412368   0.001129   0.000015  -0.000002   0.000007  -0.001860
    32  C    0.001129   5.234083   0.384424   0.383394   0.383970   0.005624
    33  H    0.000015   0.384424   0.427110   0.007261   0.005744   0.002901
    34  H   -0.000002   0.383394   0.007261   0.415818   0.008844  -0.001351
    35  H    0.000007   0.383970   0.005744   0.008844   0.413603   0.000161
    36  Sn  -0.001860   0.005624   0.002901  -0.001351   0.000161  48.522363
    37  Cl   0.010798   0.000097   0.000073  -0.000001  -0.000041   0.199886
    38  Cl  -0.000101  -0.000109   0.000019  -0.000012   0.000002   0.223330
    39  Cl  -0.000004  -0.000089   0.000001   0.000000  -0.000003   0.201117
             37         38         39
     1  Sn  -0.011165  -0.002482  -0.010920
     2  Sn  -0.002994  -0.009314  -0.002491
     3  Cl  -0.000069  -0.000090  -0.000065
     4  Cl  -0.000105   0.000351   0.000038
     5  Cl   0.000046   0.000081  -0.000059
     6  Cl  -0.000022  -0.000078   0.000297
     7  Cl   0.000039  -0.000067  -0.000118
     8  Cl  -0.000063  -0.000066   0.000043
     9  As  -0.000257   0.003127   0.022007
    10  C    0.000257  -0.000222  -0.009989
    11  H    0.000029   0.000036  -0.000448
    12  H    0.000011   0.000025  -0.000312
    13  H    0.000007  -0.000119   0.013905
    14  C   -0.000108  -0.000092   0.000054
    15  H    0.000001   0.000002  -0.000001
    16  H    0.000002   0.000013   0.000043
    17  H   -0.000004  -0.000001  -0.000039
    18  C   -0.000091  -0.000658  -0.006171
    19  H   -0.000035  -0.000791   0.008698
    20  H   -0.000009  -0.000341  -0.000358
    21  H   -0.000002   0.000231  -0.000566
    22  Pt  -0.024908   0.004339  -0.030889
    23  As   0.025400   0.003037   0.000151
    24  C   -0.008146   0.000656  -0.000154
    25  H   -0.000623  -0.000619  -0.000010
    26  H    0.010012  -0.001194   0.000046
    27  H   -0.000662   0.001462  -0.000006
    28  C   -0.007777  -0.000147   0.000171
    29  H   -0.000231   0.000032   0.000011
    30  H   -0.000434   0.000035   0.000012
    31  H    0.010798  -0.000101  -0.000004
    32  C    0.000097  -0.000109  -0.000089
    33  H    0.000073   0.000019   0.000001
    34  H   -0.000001  -0.000012   0.000000
    35  H   -0.000041   0.000002  -0.000003
    36  Sn   0.199886   0.223330   0.201117
    37  Cl  17.029268   0.014543   0.011538
    38  Cl   0.014543  16.998314   0.012281
    39  Cl   0.011538   0.012281  17.021908
 Mulliken atomic charges:
              1
     1  Sn   0.594920
     2  Sn   0.579128
     3  Cl  -0.235955
     4  Cl  -0.228657
     5  Cl  -0.238282
     6  Cl  -0.246752
     7  Cl  -0.245398
     8  Cl  -0.234775
     9  As   0.471364
    10  C   -0.455317
    11  H    0.157789
    12  H    0.165189
    13  H    0.164663
    14  C   -0.457498
    15  H    0.157110
    16  H    0.166048
    17  H    0.165618
    18  C   -0.454636
    19  H    0.157178
    20  H    0.165939
    21  H    0.165058
    22  Pt  -1.729463
    23  As   0.462908
    24  C   -0.456654
    25  H    0.162888
    26  H    0.161503
    27  H    0.165471
    28  C   -0.462557
    29  H    0.163290
    30  H    0.159541
    31  H    0.167301
    32  C   -0.459170
    33  H    0.162414
    34  H    0.160346
    35  H    0.166965
    36  Sn   0.581783
    37  Cl  -0.244260
    38  Cl  -0.245413
    39  Cl  -0.229628
 Sum of Mulliken atomic charges =  -1.00000
 Mulliken charges with hydrogens summed into heavy atoms:
              1
     1  Sn   0.594920
     2  Sn   0.579128
     3  Cl  -0.235955
     4  Cl  -0.228657
     5  Cl  -0.238282
     6  Cl  -0.246752
     7  Cl  -0.245398
     8  Cl  -0.234775
     9  As   0.471364
    10  C    0.032324
    14  C    0.031278
    18  C    0.033540
    22  Pt  -1.729463
    23  As   0.462908
    24  C    0.033207
    28  C    0.027575
    32  C    0.030554
    36  Sn   0.581783
    37  Cl  -0.244260
    38  Cl  -0.245413
    39  Cl  -0.229628
 Sum of Mulliken charges with hydrogens summed into heavy atoms =  -1.00000
 Electronic spatial extent (au):  <R**2>=          19863.7573
 Charge=             -1.0000 electrons
 Dipole moment (field-independent basis, Debye):
    X=             -0.2317    Y=              0.0563    Z=              0.4412  Tot=              0.5015
 Quadrupole moment (field-independent basis, Debye-Ang):
   XX=           -392.6296   YY=           -392.7109   ZZ=           -283.3022
   XY=             -0.1495   XZ=             -0.3000   YZ=             -0.3445
 Traceless Quadrupole moment (field-independent basis, Debye-Ang):
   XX=            -36.4154   YY=            -36.4966   ZZ=             72.9120
   XY=             -0.1495   XZ=             -0.3000   YZ=             -0.3445
 Octapole moment (field-independent basis, Debye-Ang**2):
  XXX=             70.6237  YYY=            -42.4984  ZZZ=              3.5019  XYY=            -76.2985
  XXY=             43.3692  XXZ=              4.3158  XZZ=             -2.0298  YZZ=             -0.1663
  YYZ=              3.4527  XYZ=             -0.3708
 Hexadecapole moment (field-independent basis, Debye-Ang**3):
 XXXX=         -10285.3588 YYYY=         -10198.7414 ZZZZ=          -5748.1835 XXXY=             -0.4958
 XXXZ=             13.0251 YYYX=              0.9518 YYYZ=             -8.6685 ZZZX=             -4.4701
 ZZZY=             -5.7070 XXYY=          -3412.3083 XXZZ=          -2722.0209 YYZZ=          -2710.0754
 XXYZ=              6.4243 YYXZ=            -12.8011 ZZXY=             -0.7307
 N-N= 1.534698859982D+04 E-N=-1.347244644030D+05  KE= 4.328115359191D+04
 Calculating spin-rotation constants.
 Leave Link  601 at Sun Jul  5 03:03:15 2020, MaxMem=13421772800 cpu:    7786.6
 (Enter /home/scr/programs/g09/l9999.exe)
 1\1\GINC-NEQC33\SP\RPBEPBE\Gen\C6H18As2Cl9Pt1Sn3(1-)\GUEST1\05-Jul-202
 0\0\\#PBEPBE/gen scf=(maxcycle=500,conver=4) NMR=GIAO Scrf=(solvent=ch
 loroform)\\estrutura 21\\-1,1\Sn,0,0.976276,2.513382,0.007111\Sn,0,-2.
 67109,-0.414334,-0.003643\Cl,0,-4.090526,1.571375,-0.112453\Cl,0,-3.78
 6202,-1.569605,1.851884\Cl,0,-3.640393,-1.688821,-1.865368\Cl,0,3.4152
 89,2.692064,-0.139942\Cl,0,0.356871,4.04677,-1.813842\Cl,0,0.598956,4.
 020563,1.912639\As,0,-0.018295,-0.011004,2.5174\C,0,1.632247,0.602876,
 3.358238\H,0,1.757156,1.675942,3.162063\H,0,1.54648,0.432608,4.441686\
 H,0,2.477164,0.029858,2.955614\C,0,-1.376925,1.11716,3.347819\H,0,-2.3
 69964,0.692883,3.148957\H,0,-1.193697,1.13582,4.432416\H,0,-1.295535,2
 .132068,2.937949\C,0,-0.31532,-1.751803,3.34938\H,0,0.54557,-2.401038,
 3.142698\H,0,-0.411613,-1.600398,4.434431\H,0,-1.239343,-2.187314,2.94
 7736\Pt,0,-0.015638,-0.002135,0.020912\As,0,-0.002518,0.006794,-2.4783
 66\C,0,-0.165868,-1.752709,-3.318532\H,0,-0.485976,-1.604905,-4.360074
 \H,0,0.817798,-2.241022,-3.291385\H,0,-0.910782,-2.349352,-2.779027\C,
 0,1.607711,0.740602,-3.305875\H,0,1.592561,0.474124,-4.373235\H,0,1.59
 5798,1.832945,-3.195951\H,0,2.496086,0.31049,-2.826254\C,0,-1.430255,1
 .046114,-3.312488\H,0,-1.165136,1.206755,-4.367852\H,0,-2.366324,0.476
 601,-3.245034\H,0,-1.525386,2.011634,-2.800986\Sn,0,1.713501,-2.078902
 ,0.000347\Cl,0,3.326604,-2.317803,-1.839893\Cl,0,0.683444,-4.297708,-0
 .133424\Cl,0,3.218179,-2.50054,1.894222\\Version=EM64L-G09RevA.02\Stat
 e=1-A\HF=-43892.5507951\RMSD=1.885e-05\Dipole=-0.0911459,0.0221334,0.1
 735889\Quadrupole=-27.0739659,-27.1343526,54.2083185,-0.1111338,-0.223
 0218,-0.2560991\PG=C01 [X(C6H18As2Cl9Pt1Sn3)]\\@


 Experience is what you get when you don't get what you want.
 -- Dan Stanford
 Job cpu time:  1 days  4 hours  1 minutes 51.4 seconds.
 File lengths (MBytes):  RWF=   1045 Int=      0 D2E=      0 Chk=     80 Scr=      1
 Normal termination of Gaussian 09 at Sun Jul  5 03:03:15 2020.
