 Entering Gaussian System, Link 0=g09
 Input=estrutura27.com
 Output=estrutura27.log
 Initial command:
 /scr/programs/g09/l1.exe "/scr/guest/Gau-26640.inp" -scrdir="/scr/guest/"
 Entering Link 1 = /scr/programs/g09/l1.exe PID=     26641.
  
 Copyright (c) 1988,1990,1992,1993,1995,1998,2003,2009,2013,
            Gaussian, Inc.  All Rights Reserved.
  
 This is part of the Gaussian(R) 09 program.  It is based on
 the Gaussian(R) 03 system (copyright 2003, Gaussian, Inc.),
 the Gaussian(R) 98 system (copyright 1998, Gaussian, Inc.),
 the Gaussian(R) 94 system (copyright 1995, Gaussian, Inc.),
 the Gaussian 92(TM) system (copyright 1992, Gaussian, Inc.),
 the Gaussian 90(TM) system (copyright 1990, Gaussian, Inc.),
 the Gaussian 88(TM) system (copyright 1988, Gaussian, Inc.),
 the Gaussian 86(TM) system (copyright 1986, Carnegie Mellon
 University), and the Gaussian 82(TM) system (copyright 1983,
 Carnegie Mellon University). Gaussian is a federally registered
 trademark of Gaussian, Inc.
  
 This software contains proprietary and confidential information,
 including trade secrets, belonging to Gaussian, Inc.
  
 This software is provided under written license and may be
 used, copied, transmitted, or stored only in accord with that
 written license.
  
 The following legend is applicable only to US Government
 contracts under FAR:
  
                    RESTRICTED RIGHTS LEGEND
  
 Use, reproduction and disclosure by the US Government is
 subject to restrictions as set forth in subparagraphs (a)
 and (c) of the Commercial Computer Software - Restricted
 Rights clause in FAR 52.227-19.
  
 Gaussian, Inc.
 340 Quinnipiac St., Bldg. 40, Wallingford CT 06492
  
  
 ---------------------------------------------------------------
 Warning -- This program may not be used in any manner that
 competes with the business of Gaussian, Inc. or will provide
 assistance to any competitor of Gaussian, Inc.  The licensee
 of this program is prohibited from giving any competitor of
 Gaussian, Inc. access to this program.  By using this program,
 the user acknowledges that Gaussian, Inc. is engaged in the
 business of creating and licensing software in the field of
 computational chemistry and represents and warrants to the
 licensee that it is not a competitor of Gaussian, Inc. and that
 it will not use this program in any manner prohibited above.
 ---------------------------------------------------------------
  

 Cite this work as:
 Gaussian 09, Revision D.01,
 M. J. Frisch, G. W. Trucks, H. B. Schlegel, G. E. Scuseria, 
 M. A. Robb, J. R. Cheeseman, G. Scalmani, V. Barone, B. Mennucci, 
 G. A. Petersson, H. Nakatsuji, M. Caricato, X. Li, H. P. Hratchian, 
 A. F. Izmaylov, J. Bloino, G. Zheng, J. L. Sonnenberg, M. Hada, 
 M. Ehara, K. Toyota, R. Fukuda, J. Hasegawa, M. Ishida, T. Nakajima, 
 Y. Honda, O. Kitao, H. Nakai, T. Vreven, J. A. Montgomery, Jr., 
 J. E. Peralta, F. Ogliaro, M. Bearpark, J. J. Heyd, E. Brothers, 
 K. N. Kudin, V. N. Staroverov, T. Keith, R. Kobayashi, J. Normand, 
 K. Raghavachari, A. Rendell, J. C. Burant, S. S. Iyengar, J. Tomasi, 
 M. Cossi, N. Rega, J. M. Millam, M. Klene, J. E. Knox, J. B. Cross, 
 V. Bakken, C. Adamo, J. Jaramillo, R. Gomperts, R. E. Stratmann, 
 O. Yazyev, A. J. Austin, R. Cammi, C. Pomelli, J. W. Ochterski, 
 R. L. Martin, K. Morokuma, V. G. Zakrzewski, G. A. Voth, 
 P. Salvador, J. J. Dannenberg, S. Dapprich, A. D. Daniels, 
 O. Farkas, J. B. Foresman, J. V. Ortiz, J. Cioslowski, 
 and D. J. Fox, Gaussian, Inc., Wallingford CT, 2013.
 
 ******************************************
 Gaussian 09:  EM64L-G09RevD.01 24-Apr-2013
                 4-Feb-2020 
 ******************************************
 %mem=30Gb
 %nproc=24
 Will use up to   24 processors via shared memory.
 ----------------------------------------------------------------------
 #PBEPBE/gen scf=(maxcycle=500,conver=4) NMR=GIAO Scrf=(solvent=Dichlor
 omethane)
 ----------------------------------------------------------------------
 1/38=1/1;
 2/12=2,17=6,18=5,40=1/2;
 3/5=7,11=2,16=1,25=1,30=1,70=2201,72=9,74=1009/1,2,8,3;
 4//1;
 5/5=2,6=4,7=500,38=5,53=9/2;
 8/6=1,10=90,11=11/1;
 10/13=100,45=16/2;
 6/7=2,8=2,9=2,10=2,28=1/1;
 99/9=1/99;
 Leave Link    1 at Tue Feb  4 08:17:01 2020, MaxMem=  4026531840 cpu:         4.6
 (Enter /scr/programs/g09/l101.exe)
 ------------
 estrutura 27
 ------------
 Symbolic Z-matrix:
 Charge = -1 Multiplicity = 1
 Pt                   -0.12704   1.23246  -0.01486 
 Cl                    1.5802    2.95992   0.09069 
 Cl                   -1.90328   2.89724  -0.06555 
 Sn                    1.87805  -0.4121   -0.04225 
 Cl                    2.61266  -1.23687   2.12622 
 Cl                    4.0321    0.25603  -0.90983 
 Cl                    1.74473  -2.50892  -1.27779 
 P                    -1.6542   -0.38969  -0.0842 
 O                    -1.11538  -1.81118   0.48748 
 O                    -2.13163  -0.61717  -1.59781 
 O                    -2.97686  -0.09969   0.79768 
 C                    -1.71259  -2.61035   1.53493 
 H                    -2.20985  -1.94525   2.25632 
 H                    -2.48216  -3.25629   1.08181 
 C                    -0.62784  -3.43107   2.19948 
 H                    -1.07573  -4.08192   2.96686 
 H                    -0.10562  -4.06409   1.46616 
 H                     0.11664  -2.77839   2.6773 
 C                    -2.60264  -1.67243  -2.46672 
 H                    -3.63601  -1.40819  -2.74184 
 H                    -1.984    -1.58906  -3.3728 
 C                    -2.53776  -3.08298  -1.91551 
 H                    -1.51348  -3.35437  -1.62721 
 H                    -3.20593  -3.22424  -1.05245 
 H                    -2.87045  -3.77067  -2.70878 
 C                    -4.35162  -0.27978   0.39498 
 H                    -4.42298  -0.18817  -0.6994 
 H                    -4.66219  -1.30076   0.67734 
 C                    -5.20234   0.76972   1.08156 
 H                    -4.86108   1.77781   0.80087 
 H                    -6.2553    0.64841   0.77928 
 H                    -5.14184   0.67317   2.17648 
 
 NAtoms=     32 NQM=       32 NQMF=       0 NMMI=      0 NMMIF=      0
                NMic=       0 NMicF=      0.
                    Isotopes and Nuclear Properties:
 (Nuclear quadrupole moments (NQMom) in fm**2, nuclear magnetic moments (NMagM)
  in nuclear magnetons)

  Atom         1           2           3           4           5           6           7           8           9          10
 IAtWgt=         195          35          35         118          35          35          35          31          16          16
 AtmWgt= 194.9648000  34.9688527  34.9688527 117.9018000  34.9688527  34.9688527  34.9688527  30.9737634  15.9949146  15.9949146
 NucSpn=           1           3           3           0           3           3           3           1           0           0
 AtZEff=   0.0000000   0.0000000   0.0000000   0.0000000   0.0000000   0.0000000   0.0000000   0.0000000   0.0000000   0.0000000
 NQMom=    0.0000000  -8.1650000  -8.1650000   0.0000000  -8.1650000  -8.1650000  -8.1650000   0.0000000   0.0000000   0.0000000
 NMagM=    0.6095000   0.8218740   0.8218740   0.0000000   0.8218740   0.8218740   0.8218740   1.1316000   0.0000000   0.0000000
 AtZNuc=  78.0000000  17.0000000  17.0000000  50.0000000  17.0000000  17.0000000  17.0000000  15.0000000   8.0000000   8.0000000

  Atom        11          12          13          14          15          16          17          18          19          20
 IAtWgt=          16          12           1           1          12           1           1           1          12           1
 AtmWgt=  15.9949146  12.0000000   1.0078250   1.0078250  12.0000000   1.0078250   1.0078250   1.0078250  12.0000000   1.0078250
 NucSpn=           0           0           1           1           0           1           1           1           0           1
 AtZEff=   0.0000000   0.0000000   0.0000000   0.0000000   0.0000000   0.0000000   0.0000000   0.0000000   0.0000000   0.0000000
 NQMom=    0.0000000   0.0000000   0.0000000   0.0000000   0.0000000   0.0000000   0.0000000   0.0000000   0.0000000   0.0000000
 NMagM=    0.0000000   0.0000000   2.7928460   2.7928460   0.0000000   2.7928460   2.7928460   2.7928460   0.0000000   2.7928460
 AtZNuc=   8.0000000   6.0000000   1.0000000   1.0000000   6.0000000   1.0000000   1.0000000   1.0000000   6.0000000   1.0000000

  Atom        21          22          23          24          25          26          27          28          29          30
 IAtWgt=           1          12           1           1           1          12           1           1          12           1
 AtmWgt=   1.0078250  12.0000000   1.0078250   1.0078250   1.0078250  12.0000000   1.0078250   1.0078250  12.0000000   1.0078250
 NucSpn=           1           0           1           1           1           0           1           1           0           1
 AtZEff=   0.0000000   0.0000000   0.0000000   0.0000000   0.0000000   0.0000000   0.0000000   0.0000000   0.0000000   0.0000000
 NQMom=    0.0000000   0.0000000   0.0000000   0.0000000   0.0000000   0.0000000   0.0000000   0.0000000   0.0000000   0.0000000
 NMagM=    2.7928460   0.0000000   2.7928460   2.7928460   2.7928460   0.0000000   2.7928460   2.7928460   0.0000000   2.7928460
 AtZNuc=   1.0000000   6.0000000   1.0000000   1.0000000   1.0000000   6.0000000   1.0000000   1.0000000   6.0000000   1.0000000

  Atom        31          32
 IAtWgt=           1           1
 AtmWgt=   1.0078250   1.0078250
 NucSpn=           1           1
 AtZEff=   0.0000000   0.0000000
 NQMom=    0.0000000   0.0000000
 NMagM=    2.7928460   2.7928460
 AtZNuc=   1.0000000   1.0000000
 Leave Link  101 at Tue Feb  4 08:17:01 2020, MaxMem=  4026531840 cpu:         7.6
 (Enter /scr/programs/g09/l202.exe)
                          Input orientation:                          
 ---------------------------------------------------------------------
 Center     Atomic      Atomic             Coordinates (Angstroms)
 Number     Number       Type             X           Y           Z
 ---------------------------------------------------------------------
      1         78           0       -0.127036    1.232463   -0.014862
      2         17           0        1.580196    2.959924    0.090693
      3         17           0       -1.903277    2.897242   -0.065548
      4         50           0        1.878050   -0.412102   -0.042251
      5         17           0        2.612660   -1.236870    2.126220
      6         17           0        4.032104    0.256029   -0.909826
      7         17           0        1.744731   -2.508915   -1.277786
      8         15           0       -1.654202   -0.389691   -0.084199
      9          8           0       -1.115383   -1.811179    0.487479
     10          8           0       -2.131629   -0.617171   -1.597812
     11          8           0       -2.976860   -0.099689    0.797675
     12          6           0       -1.712592   -2.610347    1.534925
     13          1           0       -2.209852   -1.945253    2.256322
     14          1           0       -2.482163   -3.256290    1.081813
     15          6           0       -0.627843   -3.431066    2.199477
     16          1           0       -1.075733   -4.081919    2.966860
     17          1           0       -0.105623   -4.064091    1.466158
     18          1           0        0.116640   -2.778391    2.677301
     19          6           0       -2.602638   -1.672430   -2.466716
     20          1           0       -3.636012   -1.408185   -2.741840
     21          1           0       -1.984004   -1.589058   -3.372796
     22          6           0       -2.537759   -3.082976   -1.915513
     23          1           0       -1.513482   -3.354374   -1.627205
     24          1           0       -3.205925   -3.224235   -1.052453
     25          1           0       -2.870453   -3.770671   -2.708782
     26          6           0       -4.351616   -0.279779    0.394978
     27          1           0       -4.422981   -0.188169   -0.699402
     28          1           0       -4.662193   -1.300763    0.677336
     29          6           0       -5.202340    0.769723    1.081563
     30          1           0       -4.861083    1.777809    0.800872
     31          1           0       -6.255297    0.648412    0.779281
     32          1           0       -5.141836    0.673174    2.176479
 ---------------------------------------------------------------------
                    Distance matrix (angstroms):
                    1          2          3          4          5
     1  Pt   0.000000
     2  Cl   2.431030   0.000000
     3  Cl   2.434972   3.487538   0.000000
     4  Sn   2.593398   3.387765   5.025011   0.000000
     5  Cl   4.264712   4.777283   6.502954   2.433549   0.000000
     6  Cl   4.364955   3.784698   6.551149   2.416409   3.668943
     7  Cl   4.369943   5.639859   6.633552   2.437405   3.736128
     8  P    2.228997   4.659596   3.296409   3.532572   4.879526
     9  O    3.239280   5.494271   4.805814   3.346442   4.112616
    10  O    3.153612   5.424417   3.840713   4.305734   6.063062
    11  O    3.249053   5.534240   3.298383   4.936925   5.856701
    12  C    4.436555   6.629946   5.738590   4.495829   4.576448
    13  H    4.426542   6.566215   5.379110   4.934058   4.875998
    14  H    5.186350   7.491755   6.286295   5.325822   5.579074
    15  C    5.186772   7.082878   6.841385   4.518737   3.914169
    16  H    6.167118   8.056913   7.654346   5.589914   4.733416
    17  H    5.499760   7.353277   7.351043   4.421231   3.977175
    18  H    4.836742   6.462259   6.619373   4.012213   2.984978
    19  C    4.536364   6.745009   5.209282   5.248145   6.963053
    20  H    5.169366   7.369698   5.357388   6.219714   7.922958
    21  H    4.762881   6.737397   5.574163   5.233853   7.175830
    22  C    5.295949   7.582813   6.291895   5.490177   6.802244
    23  H    5.055784   7.238258   6.455495   4.761463   5.966328
    24  H    5.515280   7.903010   6.335878   5.897067   6.921670
    25  H    6.309904   8.540857   7.237622   6.398332   7.737049
    26  C    4.505765   6.765697   4.037315   6.246392   7.239776
    27  H    4.576236   6.824432   4.033663   6.339163   7.654029
    28  H    5.240613   7.580569   5.078065   6.639450   7.418007
    29  C    5.212963   7.195943   4.089745   7.265782   8.135843
    30  H    4.834669   6.587247   3.279090   7.135999   8.167109
    31  H    6.207041   8.198304   4.971021   8.243236   9.165653
    32  H    5.501182   7.400368   4.523431   7.441733   7.986426
                    6          7          8          9         10
     6  Cl   0.000000
     7  Cl   3.607268   0.000000
     8  P    5.782101   4.179534   0.000000
     9  O    5.720352   3.432674   1.624121   0.000000
    10  O    6.263179   4.325191   1.603343   2.608994   0.000000
    11  O    7.222719   5.692568   1.615929   2.547649   2.592404
    12  C    6.869822   4.458107   2.748870   1.446538   3.736627
    13  H    7.337040   5.333513   2.864709   2.084381   4.077287
    14  H    7.664117   4.898256   3.203513   2.075974   3.777329
    15  C    6.706530   4.309388   3.939359   2.406796   4.959716
    16  H    7.741866   5.333515   4.824535   3.362315   5.827146
    17  H    6.436577   3.656721   4.278191   2.655756   5.037248
    18  H    6.116048   4.285558   4.058035   2.692341   5.291708
    19  C    7.082560   4.583981   2.867287   3.310354   1.445827
    20  H    8.057660   5.683965   3.468134   4.116367   2.048822
    21  H    6.757523   4.374776   3.515981   3.963025   2.029021
    22  C    7.437974   4.367604   3.374636   3.068386   2.519141
    23  H    6.656062   3.384205   3.345148   2.647985   2.806288
    24  H    8.032537   5.007140   3.373426   2.956093   2.871987
    25  H    8.191206   4.993966   4.449576   4.139561   3.424132
    26  C    8.501551   6.703181   2.741849   3.581473   3.002230
    27  H    8.469360   6.615214   2.843453   3.870795   2.498295
    28  H    8.974045   6.806674   3.233883   3.588374   3.470929
    29  C    9.460680   8.036031   3.910566   4.870032   4.304857
    30  H    9.183195   8.144544   3.970578   5.197049   4.351957
    31  H   10.432529   8.843115   4.795136   5.705563   4.925130
    32  H    9.688161   8.335613   4.289981   5.023650   4.997160
                   11         12         13         14         15
    11  O    0.000000
    12  C    2.906082   0.000000
    13  H    2.474279   1.100014   0.000000
    14  H    3.207739   1.102176   1.781135   0.000000
    15  C    4.310569   1.513899   2.171088   2.172147   0.000000
    16  H    4.917093   2.149779   2.521196   2.492611   1.101404
    17  H    4.940380   2.168052   3.088950   2.539332   1.100541
    18  H    4.503130   2.163181   2.506772   3.086705   1.099343
    19  C    3.642774   4.205354   4.747189   3.887825   5.363392
    20  H    3.830771   4.841018   5.225323   4.400816   6.128437
    21  H    4.538371   5.020201   5.644896   4.782402   6.023487
    22  C    4.056378   3.579078   4.336605   3.002847   4.549955
    23  H    4.314452   3.254579   4.189551   2.878670   3.928579
    24  H    3.638438   3.049824   3.684555   2.253875   4.155037
    25  H    5.077664   4.549290   5.331116   3.844993   5.406999
    26  C    1.443798   3.700740   3.290222   3.581370   5.201280
    27  H    2.083347   4.266775   4.089204   4.043868   5.772604
    28  H    2.073019   3.339254   2.987062   2.956386   4.809479
    29  C    2.406082   4.879421   4.207866   4.858821   6.310498
    30  H    2.659945   5.450481   4.796723   5.574975   6.856296
    31  H    3.362758   5.641514   5.027362   5.438268   7.094176
    32  H    2.680586   4.790910   3.931802   4.869583   6.100938
                   16         17         18         19         20
    16  H    0.000000
    17  H    1.787047   0.000000
    18  H    1.790191   1.780251   0.000000
    19  C    6.136842   5.236662   5.922713   0.000000
    20  H    6.803906   6.101207   6.732529   1.101536   0.000000
    21  H    6.872449   5.750616   6.513900   1.100291   1.777625
    22  C    5.193551   4.279436   5.313431   1.515808   2.166541
    23  H    4.671871   3.471982   4.638731   2.172550   3.087911
    24  H    4.629062   4.081744   5.014906   2.184535   2.517348
    25  H    5.960772   5.016025   6.238368   2.129069   2.483649
    26  C    5.639349   5.787651   5.605120   3.631486   3.409548
    27  H    6.309266   6.192899   6.222502   2.939401   2.505856
    28  H    5.083251   5.387073   5.387067   3.776899   3.571463
    29  C    6.642414   7.034927   6.589920   5.031187   4.670661
    30  H    7.304573   7.562063   7.004118   5.261355   4.919570
    31  H    7.347749   7.778044   7.479775   5.409688   4.846498
    32  H    6.306251   6.950516   6.309968   5.788665   5.548822
                   21         22         23         24         25
    21  H    0.000000
    22  C    2.159192   0.000000
    23  H    2.526820   1.098145   0.000000
    24  H    3.090451   1.100578   1.792105   0.000000
    25  H    2.446659   1.101311   1.784512   1.776108   0.000000
    26  C    4.638526   4.060340   4.647296   3.475268   4.900357
    27  H    3.880481   3.662362   4.398961   3.289919   4.391158
    28  H    4.864091   3.796363   4.409377   2.968608   4.558133
    29  C    5.980205   5.561092   6.160623   4.948878   6.357640
    30  H    6.085465   6.033557   6.591001   5.585231   6.860460
    31  H    6.363172   5.916524   6.655695   5.258452   6.569022
    32  H    6.773777   6.134678   6.622243   5.418814   6.983746
                   26         27         28         29         30
    26  C    0.000000
    27  H    1.100524   0.000000
    28  H    1.103899   1.786196   0.000000
    29  C    1.515449   2.167209   2.177630   0.000000
    30  H    2.158234   2.511538   3.087462   1.100673   0.000000
    31  H    2.152494   2.498750   2.519456   1.102184   1.794390
    32  H    2.169404   3.086965   2.524661   1.100829   1.786431
                   31         32
    31  H    0.000000
    32  H    1.786777   0.000000
 Stoichiometry    C6H15Cl5O3PPtSn(1-)
 Framework group  C1[X(C6H15Cl5O3PPtSn)]
 Deg. of freedom    90
 Full point group                 C1      NOp   1
 Largest Abelian subgroup         C1      NOp   1
 Largest concise Abelian subgroup C1      NOp   1
                         Standard orientation:                         
 ---------------------------------------------------------------------
 Center     Atomic      Atomic             Coordinates (Angstroms)
 Number     Number       Type             X           Y           Z
 ---------------------------------------------------------------------
      1         78           0        0.127036   -1.232463   -0.014862
      2         17           0       -1.580196   -2.959924    0.090693
      3         17           0        1.903277   -2.897242   -0.065548
      4         50           0       -1.878050    0.412102   -0.042251
      5         17           0       -2.612660    1.236870    2.126220
      6         17           0       -4.032104   -0.256029   -0.909826
      7         17           0       -1.744731    2.508915   -1.277786
      8         15           0        1.654202    0.389691   -0.084199
      9          8           0        1.115383    1.811179    0.487479
     10          8           0        2.131629    0.617171   -1.597812
     11          8           0        2.976860    0.099689    0.797675
     12          6           0        1.712592    2.610347    1.534925
     13          1           0        2.209852    1.945253    2.256322
     14          1           0        2.482163    3.256290    1.081813
     15          6           0        0.627843    3.431066    2.199477
     16          1           0        1.075733    4.081919    2.966860
     17          1           0        0.105623    4.064091    1.466158
     18          1           0       -0.116640    2.778391    2.677301
     19          6           0        2.602638    1.672430   -2.466716
     20          1           0        3.636012    1.408185   -2.741840
     21          1           0        1.984004    1.589058   -3.372796
     22          6           0        2.537759    3.082976   -1.915513
     23          1           0        1.513482    3.354374   -1.627205
     24          1           0        3.205925    3.224235   -1.052453
     25          1           0        2.870453    3.770671   -2.708782
     26          6           0        4.351616    0.279780    0.394978
     27          1           0        4.422981    0.188170   -0.699402
     28          1           0        4.662193    1.300764    0.677336
     29          6           0        5.202340   -0.769722    1.081563
     30          1           0        4.861083   -1.777808    0.800872
     31          1           0        6.255297   -0.648411    0.779281
     32          1           0        5.141836   -0.673173    2.176479
 ---------------------------------------------------------------------
 Rotational constants (GHZ):      0.2193366      0.1497316      0.1118690
 Leave Link  202 at Tue Feb  4 08:17:01 2020, MaxMem=  4026531840 cpu:         3.0
 (Enter /scr/programs/g09/l301.exe)
 General basis read from cards:  (5D, 7F)
 Centers:      13     14     16     17     18     20     21     23     24     25
 Centers:      27     28     30     31     32
 S 5 1.00
     Exponent=  2.8295215633D+02 Coefficients=  4.3000000000D-04
     Exponent=  8.7062201949D+01 Coefficients=  5.1000000000D-04
     Exponent=  2.6788369830D+01 Coefficients=  6.1600000000D-03
     Exponent=  8.2425753324D+00 Coefficients=  1.3030000000D-02
     Exponent=  2.5361770254D+00 Coefficients=  9.9490000000D-02
 S 1 1.00
     Exponent=  7.8036216165D-01 Coefficients=  1.0000000000D+00
 S 1 1.00
     Exponent=  2.4011143435D-01 Coefficients=  1.0000000000D+00
 P 1 1.00
     Exponent=  8.8150000000D-01 Coefficients=  1.0000000000D+00
 P 1 1.00
     Exponent=  1.7989200000D-01 Coefficients=  1.0000000000D+00
 ****
 Centers:      12     15     19     22     26     29
 S 6 1.00
     Exponent=  8.8461235339D+03 Coefficients=  5.3000000000D-04
     Exponent=  2.9487078446D+03 Coefficients=  7.7000000000D-04
     Exponent=  9.8290261488D+02 Coefficients=  4.0500000000D-03
     Exponent=  3.2763420496D+02 Coefficients=  1.4030000000D-02
     Exponent=  1.0921140165D+02 Coefficients=  5.3450000000D-02
     Exponent=  3.6403800551D+01 Coefficients=  1.7027000000D-01
 S 1 1.00
     Exponent=  1.2134600184D+01 Coefficients=  1.0000000000D+00
 S 1 1.00
     Exponent=  4.0448667279D+00 Coefficients=  1.0000000000D+00
 S 1 1.00
     Exponent=  1.3482889093D+00 Coefficients=  1.0000000000D+00
 S 1 1.00
     Exponent=  4.4942963643D-01 Coefficients=  1.0000000000D+00
 S 1 1.00
     Exponent=  1.4980987881D-01 Coefficients=  1.0000000000D+00
 P 4 1.00
     Exponent=  3.7294093393D+01 Coefficients=  3.9600000000D-03
     Exponent=  1.1475105659D+01 Coefficients=  1.8890000000D-02
     Exponent=  3.5308017414D+00 Coefficients=  9.4610000000D-02
     Exponent=  1.0864005358D+00 Coefficients=  3.1889000000D-01
 P 1 1.00
     Exponent=  3.3427708794D-01 Coefficients=  1.0000000000D+00
 P 1 1.00
     Exponent=  1.0285448860D-01 Coefficients=  1.0000000000D+00
 D 1 1.00
     Exponent=  4.7750000000D-01 Coefficients=  1.0000000000D+00
 D 1 1.00
     Exponent=  1.1998000000D-01 Coefficients=  1.0000000000D+00
 ****
 Centers:       9     10     11
 S 6 1.00
     Exponent=  1.6178118231D+04 Coefficients=  6.0000000000D-04
     Exponent=  5.3927060771D+03 Coefficients=  7.8000000000D-04
     Exponent=  1.7975686924D+03 Coefficients=  4.1000000000D-03
     Exponent=  5.9918956413D+02 Coefficients=  1.3880000000D-02
     Exponent=  1.9972985471D+02 Coefficients=  5.2770000000D-02
     Exponent=  6.6576618236D+01 Coefficients=  1.6924000000D-01
 S 1 1.00
     Exponent=  2.2192206079D+01 Coefficients=  1.0000000000D+00
 S 1 1.00
     Exponent=  7.3974020263D+00 Coefficients=  1.0000000000D+00
 S 1 1.00
     Exponent=  2.4658006754D+00 Coefficients=  1.0000000000D+00
 S 1 1.00
     Exponent=  8.2193355847D-01 Coefficients=  1.0000000000D+00
 S 1 1.00
     Exponent=  2.7397785282D-01 Coefficients=  1.0000000000D+00
 P 4 1.00
     Exponent=  7.3854398670D+01 Coefficients=  4.0200000000D-03
     Exponent=  2.2724430360D+01 Coefficients=  2.0130000000D-02
     Exponent=  6.9921324184D+00 Coefficients=  1.0470000000D-01
     Exponent=  2.1514253595D+00 Coefficients=  3.3605000000D-01
 P 1 1.00
     Exponent=  6.6197703370D-01 Coefficients=  1.0000000000D+00
 P 1 1.00
     Exponent=  2.0368524114D-01 Coefficients=  1.0000000000D+00
 D 1 1.00
     Exponent=  9.2880000000D-01 Coefficients=  1.0000000000D+00
 D 1 1.00
     Exponent=  2.2975000000D-01 Coefficients=  1.0000000000D+00
 ****
 Centers:       8
 S 7 1.00
     Exponent=  5.9538004301D+04 Coefficients=  9.5000000000D-04
     Exponent=  2.1650183382D+04 Coefficients=  6.1000000000D-04
     Exponent=  7.8727939572D+03 Coefficients=  3.7500000000D-03
     Exponent=  2.8628341663D+03 Coefficients=  9.6300000000D-03
     Exponent=  1.0410306059D+03 Coefficients=  3.2430000000D-02
     Exponent=  3.7855658397D+02 Coefficients=  9.9500000000D-02
     Exponent=  1.3765693962D+02 Coefficients=  2.6570000000D-01
 S 1 1.00
     Exponent=  5.0057068954D+01 Coefficients=  1.0000000000D+00
 S 1 1.00
     Exponent=  1.8202570529D+01 Coefficients=  1.0000000000D+00
 S 1 1.00
     Exponent=  6.6191165560D+00 Coefficients=  1.0000000000D+00
 S 1 1.00
     Exponent=  2.4069514749D+00 Coefficients=  1.0000000000D+00
 S 1 1.00
     Exponent=  8.7525508178D-01 Coefficients=  1.0000000000D+00
 S 1 1.00
     Exponent=  3.1827457519D-01 Coefficients=  1.0000000000D+00
 S 1 1.00
     Exponent=  1.1573620916D-01 Coefficients=  1.0000000000D+00
 S 1 1.00
     Exponent=  4.2085894240D-02 Coefficients=  1.0000000000D+00
 P 5 1.00
     Exponent=  4.8799672315D+02 Coefficients=  2.1600000000D-03
     Exponent=  1.6266557438D+02 Coefficients=  9.7900000000D-03
     Exponent=  5.4221858128D+01 Coefficients=  5.4850000000D-02
     Exponent=  1.8073952709D+01 Coefficients=  2.1770000000D-01
     Exponent=  6.0246509031D+00 Coefficients=  4.8978000000D-01
 P 1 1.00
     Exponent=  2.0082169677D+00 Coefficients=  1.0000000000D+00
 P 1 1.00
     Exponent=  6.6940565590D-01 Coefficients=  1.0000000000D+00
 P 1 1.00
     Exponent=  2.2313521863D-01 Coefficients=  1.0000000000D+00
 P 1 1.00
     Exponent=  7.4378406211D-02 Coefficients=  1.0000000000D+00
 P 1 1.00
     Exponent=  2.4792802070D-02 Coefficients=  1.0000000000D+00
 D 1 1.00
     Exponent=  3.5395000000D-01 Coefficients=  1.0000000000D+00
 D 1 1.00
     Exponent=  8.9098000000D-02 Coefficients=  1.0000000000D+00
 ****
 Centers:       2      3      5      6      7
 S 7 1.00
     Exponent=  7.7142817164D+04 Coefficients=  1.0600000000D-03
     Exponent=  2.8051933514D+04 Coefficients=  6.4000000000D-04
     Exponent=  1.0200703096D+04 Coefficients=  3.9600000000D-03
     Exponent=  3.7093465804D+03 Coefficients=  9.8300000000D-03
     Exponent=  1.3488533020D+03 Coefficients=  3.2690000000D-02
     Exponent=  4.9049210981D+02 Coefficients=  9.9520000000D-02
     Exponent=  1.7836076720D+02 Coefficients=  2.6555000000D-01
 S 1 1.00
     Exponent=  6.4858460801D+01 Coefficients=  1.0000000000D+00
 S 1 1.00
     Exponent=  2.3584894837D+01 Coefficients=  1.0000000000D+00
 S 1 1.00
     Exponent=  8.5763253951D+00 Coefficients=  1.0000000000D+00
 S 1 1.00
     Exponent=  3.1186637801D+00 Coefficients=  1.0000000000D+00
 S 1 1.00
     Exponent=  1.1340595564D+00 Coefficients=  1.0000000000D+00
 S 1 1.00
     Exponent=  4.1238529323D-01 Coefficients=  1.0000000000D+00
 S 1 1.00
     Exponent=  1.4995828845D-01 Coefficients=  1.0000000000D+00
 S 1 1.00
     Exponent=  5.4530286708D-02 Coefficients=  1.0000000000D+00
 P 5 1.00
     Exponent=  6.9498536057D+02 Coefficients=  2.0000000000D-03
     Exponent=  2.3166178686D+02 Coefficients=  8.9500000000D-03
     Exponent=  7.7220595619D+01 Coefficients=  5.1130000000D-02
     Exponent=  2.5740198540D+01 Coefficients=  2.1011000000D-01
     Exponent=  8.5800661799D+00 Coefficients=  4.9738000000D-01
 P 1 1.00
     Exponent=  2.8600220600D+00 Coefficients=  1.0000000000D+00
 P 1 1.00
     Exponent=  9.5334068665D-01 Coefficients=  1.0000000000D+00
 P 1 1.00
     Exponent=  3.1778022888D-01 Coefficients=  1.0000000000D+00
 P 1 1.00
     Exponent=  1.0592674296D-01 Coefficients=  1.0000000000D+00
 P 1 1.00
     Exponent=  3.5308914320D-02 Coefficients=  1.0000000000D+00
 D 1 1.00
     Exponent=  5.5696000000D-01 Coefficients=  1.0000000000D+00
 D 1 1.00
     Exponent=  1.5619100000D-01 Coefficients=  1.0000000000D+00
 ****
 Centers:       4
 S 8 1.00
     Exponent=  7.5448214551D+05 Coefficients=  4.4300000000D-03
     Exponent=  3.3532539800D+05 Coefficients=  1.9800000000D-03
     Exponent=  1.4903351022D+05 Coefficients=  9.0500000000D-03
     Exponent=  6.6237115655D+04 Coefficients=  4.8700000000D-03
     Exponent=  2.9438718069D+04 Coefficients=  2.0770000000D-02
     Exponent=  1.3083874697D+04 Coefficients=  3.2900000000D-02
     Exponent=  5.8150554210D+03 Coefficients=  7.7010000000D-02
     Exponent=  2.5844690760D+03 Coefficients=  1.5160000000D-01
 S 1 1.00
     Exponent=  1.1486529227D+03 Coefficients=  1.0000000000D+00
 S 1 1.00
     Exponent=  5.1051241008D+02 Coefficients=  1.0000000000D+00
 S 1 1.00
     Exponent=  2.2689440448D+02 Coefficients=  1.0000000000D+00
 S 1 1.00
     Exponent=  1.0084195755D+02 Coefficients=  1.0000000000D+00
 S 1 1.00
     Exponent=  4.4818647798D+01 Coefficients=  1.0000000000D+00
 S 1 1.00
     Exponent=  1.9919399021D+01 Coefficients=  1.0000000000D+00
 S 1 1.00
     Exponent=  8.8530662317D+00 Coefficients=  1.0000000000D+00
 S 1 1.00
     Exponent=  3.9346961030D+00 Coefficients=  1.0000000000D+00
 S 1 1.00
     Exponent=  1.7487538235D+00 Coefficients=  1.0000000000D+00
 S 1 1.00
     Exponent=  7.7722392158D-01 Coefficients=  1.0000000000D+00
 S 1 1.00
     Exponent=  3.4543285403D-01 Coefficients=  1.0000000000D+00
 S 1 1.00
     Exponent=  1.5352571290D-01 Coefficients=  1.0000000000D+00
 S 1 1.00
     Exponent=  6.8233650180D-02 Coefficients=  1.0000000000D+00
 S 1 1.00
     Exponent=  1.3478251887D-02 Coefficients=  1.0000000000D+00
 P 5 1.00
     Exponent=  1.0090658304D+04 Coefficients=  2.7500000000D-03
     Exponent=  4.0362633217D+03 Coefficients=  4.1800000000D-03
     Exponent=  1.6145053287D+03 Coefficients=  2.0890000000D-02
     Exponent=  6.4580213147D+02 Coefficients=  7.1370000000D-02
     Exponent=  2.5832085259D+02 Coefficients=  2.2613000000D-01
 P 1 1.00
     Exponent=  1.0332834104D+02 Coefficients=  1.0000000000D+00
 P 1 1.00
     Exponent=  4.1331336414D+01 Coefficients=  1.0000000000D+00
 P 1 1.00
     Exponent=  1.6532534566D+01 Coefficients=  1.0000000000D+00
 P 1 1.00
     Exponent=  6.6130138263D+00 Coefficients=  1.0000000000D+00
 P 1 1.00
     Exponent=  2.6452055305D+00 Coefficients=  1.0000000000D+00
 P 1 1.00
     Exponent=  1.0580822122D+00 Coefficients=  1.0000000000D+00
 P 1 1.00
     Exponent=  4.2323288488D-01 Coefficients=  1.0000000000D+00
 P 1 1.00
     Exponent=  1.6929315395D-01 Coefficients=  1.0000000000D+00
 P 1 1.00
     Exponent=  6.7717261581D-02 Coefficients=  1.0000000000D+00
 P 1 1.00
     Exponent=  2.7086904632D-02 Coefficients=  1.0000000000D+00
 P 1 1.00
     Exponent=  1.0834761853D-02 Coefficients=  1.0000000000D+00
 D 4 1.00
     Exponent=  5.5430250651D+02 Coefficients=  4.3700000000D-03
     Exponent=  2.0156454782D+02 Coefficients=  2.5110000000D-02
     Exponent=  7.3296199207D+01 Coefficients=  1.3316000000D-01
     Exponent=  2.6653163348D+01 Coefficients=  3.8900000000D-01
 D 1 1.00
     Exponent=  9.6920593993D+00 Coefficients=  1.0000000000D+00
 D 1 1.00
     Exponent=  3.5243852361D+00 Coefficients=  1.0000000000D+00
 D 1 1.00
     Exponent=  1.2815946313D+00 Coefficients=  1.0000000000D+00
 D 1 1.00
     Exponent=  4.6603441139D-01 Coefficients=  1.0000000000D+00
 D 1 1.00
     Exponent=  1.6946705869D-01 Coefficients=  1.0000000000D+00
 F 1 1.00
     Exponent=  1.3140000000D+00 Coefficients=  1.0000000000D+00
 F 1 1.00
     Exponent=  1.9993000000D-01 Coefficients=  1.0000000000D+00
 ****
 Centers:       1
 S 9 1.00
     Exponent=  2.1644816090D+06 Coefficients=  1.2320000000D-02
     Exponent=  1.0822408045D+06 Coefficients=  1.2970000000D-02
     Exponent=  5.4112040224D+05 Coefficients=  2.6370000000D-02
     Exponent=  2.7056020112D+05 Coefficients=  9.0400000000D-03
     Exponent=  1.3528010056D+05 Coefficients=  3.4980000000D-02
     Exponent=  6.7640050280D+04 Coefficients=  1.2220000000D-02
     Exponent=  3.3820025140D+04 Coefficients=  6.0520000000D-02
     Exponent=  1.6910012570D+04 Coefficients=  6.4930000000D-02
     Exponent=  8.4550062850D+03 Coefficients=  1.3819000000D-01
 S 1 1.00
     Exponent=  4.2275031425D+03 Coefficients=  1.0000000000D+00
 S 1 1.00
     Exponent=  2.1137515713D+03 Coefficients=  1.0000000000D+00
 S 1 1.00
     Exponent=  1.0568757856D+03 Coefficients=  1.0000000000D+00
 S 1 1.00
     Exponent=  5.2843789281D+02 Coefficients=  1.0000000000D+00
 S 1 1.00
     Exponent=  2.6421894641D+02 Coefficients=  1.0000000000D+00
 S 1 1.00
     Exponent=  1.3210947320D+02 Coefficients=  1.0000000000D+00
 S 1 1.00
     Exponent=  6.6054736602D+01 Coefficients=  1.0000000000D+00
 S 1 1.00
     Exponent=  3.3027368301D+01 Coefficients=  1.0000000000D+00
 S 1 1.00
     Exponent=  1.6513684150D+01 Coefficients=  1.0000000000D+00
 S 1 1.00
     Exponent=  8.2568420752D+00 Coefficients=  1.0000000000D+00
 S 1 1.00
     Exponent=  4.1284210376D+00 Coefficients=  1.0000000000D+00
 S 1 1.00
     Exponent=  2.0642105188D+00 Coefficients=  1.0000000000D+00
 S 1 1.00
     Exponent=  1.0321052594D+00 Coefficients=  1.0000000000D+00
 S 1 1.00
     Exponent=  5.1605262970D-01 Coefficients=  1.0000000000D+00
 S 1 1.00
     Exponent=  2.5802631485D-01 Coefficients=  1.0000000000D+00
 S 1 1.00
     Exponent=  1.2901315743D-01 Coefficients=  1.0000000000D+00
 S 1 1.00
     Exponent=  6.4506578713D-02 Coefficients=  1.0000000000D+00
 P 7 1.00
     Exponent=  3.2357915258D+04 Coefficients=  5.0200000000D-03
     Exponent=  1.4381295670D+04 Coefficients=  2.0200000000D-03
     Exponent=  6.3916869645D+03 Coefficients=  1.8070000000D-02
     Exponent=  2.8407497620D+03 Coefficients=  3.6620000000D-02
     Exponent=  1.2625554498D+03 Coefficients=  1.1172000000D-01
     Exponent=  5.6113575545D+02 Coefficients=  2.5586000000D-01
     Exponent=  2.4939366909D+02 Coefficients=  4.2608000000D-01
 P 1 1.00
     Exponent=  1.1084163071D+02 Coefficients=  1.0000000000D+00
 P 1 1.00
     Exponent=  4.9262946981D+01 Coefficients=  1.0000000000D+00
 P 1 1.00
     Exponent=  2.1894643103D+01 Coefficients=  1.0000000000D+00
 P 1 1.00
     Exponent=  9.7309524900D+00 Coefficients=  1.0000000000D+00
 P 1 1.00
     Exponent=  4.3248677733D+00 Coefficients=  1.0000000000D+00
 P 1 1.00
     Exponent=  1.9221634548D+00 Coefficients=  1.0000000000D+00
 P 1 1.00
     Exponent=  8.5429486881D-01 Coefficients=  1.0000000000D+00
 P 1 1.00
     Exponent=  3.7968660836D-01 Coefficients=  1.0000000000D+00
 P 1 1.00
     Exponent=  1.6874960372D-01 Coefficients=  1.0000000000D+00
 P 1 1.00
     Exponent=  7.4999823874D-02 Coefficients=  1.0000000000D+00
 P 1 1.00
     Exponent=  3.3333255055D-02 Coefficients=  1.0000000000D+00
 D 5 1.00
     Exponent=  1.9119003508D+03 Coefficients=  4.3300000000D-03
     Exponent=  7.6476014031D+02 Coefficients=  1.7780000000D-02
     Exponent=  3.0590405613D+02 Coefficients=  8.9710000000D-02
     Exponent=  1.2236162245D+02 Coefficients=  3.1123000000D-01
     Exponent=  4.8944648980D+01 Coefficients=  5.3206000000D-01
 D 1 1.00
     Exponent=  1.9577859592D+01 Coefficients=  1.0000000000D+00
 D 1 1.00
     Exponent=  7.8311438368D+00 Coefficients=  1.0000000000D+00
 D 1 1.00
     Exponent=  3.1324575347D+00 Coefficients=  1.0000000000D+00
 D 1 1.00
     Exponent=  1.2529830139D+00 Coefficients=  1.0000000000D+00
 D 1 1.00
     Exponent=  5.0119320556D-01 Coefficients=  1.0000000000D+00
 D 1 1.00
     Exponent=  2.0047728222D-01 Coefficients=  1.0000000000D+00
 D 1 1.00
     Exponent=  8.0190912889D-02 Coefficients=  1.0000000000D+00
 D 1 1.00
     Exponent=  3.2076365156D-02 Coefficients=  1.0000000000D+00
 F 4 1.00
     Exponent=  8.2289680979D+01 Coefficients=  6.1870000000D-02
     Exponent=  2.9923520356D+01 Coefficients=  2.4823000000D-01
     Exponent=  1.0881280130D+01 Coefficients=  4.9956000000D-01
     Exponent=  3.9568291380D+00 Coefficients=  4.0380000000D-01
 F 1 1.00
     Exponent=  1.4388469593D+00 Coefficients=  1.0000000000D+00
 F 1 1.00
     Exponent=  5.2321707610D-01 Coefficients=  1.0000000000D+00
 G 1 1.00
     Exponent=  2.6700000000D+00 Coefficients=  1.0000000000D+00
 G 1 1.00
     Exponent=  9.0960000000D-01 Coefficients=  1.0000000000D+00
 ****
 Ernie: Thresh=  0.10000D-02 Tol=  0.10000D-05 Strict=F.
 There are   887 symmetry adapted cartesian basis functions of A   symmetry.
 There are   815 symmetry adapted basis functions of A   symmetry.
   815 basis functions,  1298 primitive gaussians,   887 cartesian basis functions
   152 alpha electrons      152 beta electrons
       nuclear repulsion energy      5966.1116100722 Hartrees.
 IExCor= 1009 DFT=T Ex=PBE Corr=PBE ExCW=0 ScaHFX=  0.000000
 ScaDFX=  1.000000  1.000000  1.000000  1.000000 ScalE2=  1.000000  1.000000
 IRadAn=      0 IRanWt=     -1 IRanGd=            0 ICorTp=0 IEmpDi=  4
 NAtoms=   32 NActive=   32 NUniq=   32 SFac= 1.00D+00 NAtFMM=   60 NAOKFM=F Big=F
 Integral buffers will be    131072 words long.
 Raffenetti 2 integral format.
 Two-electron integral symmetry is turned on.
 ------------------------------------------------------------------------------
 Polarizable Continuum Model (PCM)
 =================================
 Model                : PCM (using non-symmetric T matrix).
 Atomic radii         : UFF (Universal Force Field).
 Polarization charges : Total charges.
 Charge compensation  : None.
 Solution method      : On-the-fly selection.
 Cavity type          : Scaled VdW (van der Waals Surface) (Alpha=1.100).
 Cavity algorithm     : GePol (No added spheres)
                        Default sphere list used, NSphG=   32.
                        Lebedev-Laikov grids with approx.  5.0 points / Ang**2.
                        Smoothing algorithm: Karplus/York (Gamma=1.0000).
                        Polarization charges: spherical gaussians, with
                                              point-specific exponents (IZeta= 3).
                        Self-potential: point-specific (ISelfS= 7).
                        Self-field    : sphere-specific E.n sum rule (ISelfD= 2).
 Solvent              : Dichloromethane, Eps=   8.930000 Eps(inf)=   2.028346
 ------------------------------------------------------------------------------
 GePol: Number of generator spheres                  =      32
 GePol: Total number of spheres                      =      32
 GePol: Number of exposed spheres                    =      32 (100.00%)
 GePol: Number of points                             =    2956
 GePol: Average weight of points                     =       0.14
 GePol: Minimum weight of points                     =   0.57D-11
 GePol: Maximum weight of points                     =    0.21838
 GePol: Number of points with low weight             =     203
 GePol: Fraction of low-weight points (<1% of avg)   =       6.87%
 GePol: Cavity surface area                          =    425.569 Ang**2
 GePol: Cavity volume                                =    463.773 Ang**3
 Leave Link  301 at Tue Feb  4 08:17:02 2020, MaxMem=  4026531840 cpu:        16.2
 (Enter /scr/programs/g09/l302.exe)
 NPDir=0 NMtPBC=     1 NCelOv=     1 NCel=       1 NClECP=     1 NCelD=      1
         NCelK=      1 NCelE2=     1 NClLst=     1 CellRange=     0.0.
 One-electron integrals computed using PRISM.
 NBasis=   815 RedAO= T EigKep=  2.41D-05  NBF=   815
 NBsUse=   815 1.00D-06 EigRej= -1.00D+00 NBFU=   815
 Precomputing XC quadrature grid using
 IXCGrd= 4 IRadAn=           0 IRanWt=          -1 IRanGd=           0 AccXCQ= 0.00D+00.
 Defaulting to unpruned grid for atomic number  78.
 Defaulting to unpruned grid for atomic number  50.
 Generated NRdTot=       0 NPtTot=           0 NUsed=           0 NTot=          32
 NSgBfM=   815   815   819   820   820 MxSgAt=    32 MxSgA2=    32.
 Leave Link  302 at Tue Feb  4 08:17:08 2020, MaxMem=  4026531840 cpu:       128.5
 (Enter /scr/programs/g09/l308.exe)
 Leave Link  308 at Tue Feb  4 08:17:10 2020, MaxMem=  4026531840 cpu:        50.7
 (Enter /scr/programs/g09/l303.exe)
 DipDrv:  MaxL=1.
 Leave Link  303 at Tue Feb  4 08:17:11 2020, MaxMem=  4026531840 cpu:        23.0
 (Enter /scr/programs/g09/l401.exe)
 ExpMin= 1.08D-02 ExpMax= 2.16D+06 ExpMxC= 2.16D+06 IAcc=4 IRadAn=    199590 AccDes= 0.00D+00
 Harris functional with IExCor= 1009 and IRadAn=  199590 diagonalized for initial guess.
 HarFok:  IExCor= 1009 AccDes= 0.00D+00 IRadAn=    199590 IDoV= 1 UseB2=F ITyADJ=14
 ICtDFT=  3500011 ScaDFX=  1.000000  1.000000  1.000000  1.000000
 FoFCou: FMM=F IPFlag=           0 FMFlag=      100000 FMFlg1=           0
         NFxFlg=           0 DoJE=T BraDBF=F KetDBF=T FulRan=T
         wScrn=  0.000000 ICntrl=     500 IOpCl=  0 I1Cent=   200000004 NGrid=           0
         NMat0=    1 NMatS0=      1 NMatT0=    0 NMatD0=    1 NMtDS0=    0 NMtDT0=    0
 Petite list used in FoFCou.
 Harris En= -26209.2247116229    
 JPrj=0 DoOrth=F DoCkMO=F.
 Leave Link  401 at Tue Feb  4 08:17:34 2020, MaxMem=  4026531840 cpu:       554.6
 (Enter /scr/programs/g09/l502.exe)
 Closed shell SCF:
 Using DIIS extrapolation, IDIIS=  1040.
 Integral symmetry usage will be decided dynamically.
 IVT=     2642177 IEndB=     2642177 NGot=  4026531840 MDV=  4024928320
 LenX=  4024928320 LenY=  4024140664
 Requested convergence on RMS density matrix=1.00D-04 within 500 cycles.
 Requested convergence on MAX density matrix=1.00D-02.
 Requested convergence on             energy=1.00D-02.
 No special actions if energy rises.
 Fock matrices will be formed incrementally for  20 cycles.

 Cycle   1  Pass 1  IDiag  1:
 FoFJK:  IHMeth= 1 ICntrl=     500 DoSepK=F KAlg= 0 I1Cent=   0 FoldK=F
 IRaf= 720000000 NMat=   1 IRICut=       1 DoRegI=T DoRafI=F ISym2E= 0.
 FoFCou: FMM=F IPFlag=           0 FMFlag=      100000 FMFlg1=           0
         NFxFlg=           0 DoJE=T BraDBF=F KetDBF=F FulRan=T
         wScrn=  0.000000 ICntrl=     500 IOpCl=  0 I1Cent=           0 NGrid=           0
         NMat0=    1 NMatS0=      1 NMatT0=    0 NMatD0=    1 NMtDS0=    0 NMtDT0=    0
 Symmetry not used in FoFCou.
 Defaulting to unpruned grid for atomic number  78.
 Defaulting to unpruned grid for atomic number  78.
 Defaulting to unpruned grid for atomic number  78.
 Defaulting to unpruned grid for atomic number  78.
 Defaulting to unpruned grid for atomic number  78.
 Defaulting to unpruned grid for atomic number  78.
 Defaulting to unpruned grid for atomic number  78.
 Defaulting to unpruned grid for atomic number  78.
 Defaulting to unpruned grid for atomic number  78.
 Defaulting to unpruned grid for atomic number  78.
 Defaulting to unpruned grid for atomic number  78.
 Defaulting to unpruned grid for atomic number  78.
 Defaulting to unpruned grid for atomic number  78.
 Defaulting to unpruned grid for atomic number  78.
 Defaulting to unpruned grid for atomic number  78.
 Defaulting to unpruned grid for atomic number  78.
 Defaulting to unpruned grid for atomic number  78.
 Defaulting to unpruned grid for atomic number  78.
 Defaulting to unpruned grid for atomic number  78.
 Defaulting to unpruned grid for atomic number  78.
 Defaulting to unpruned grid for atomic number  78.
 Defaulting to unpruned grid for atomic number  78.
 Defaulting to unpruned grid for atomic number  78.
 Defaulting to unpruned grid for atomic number  78.
 Inv3:  Mode=1 IEnd=    26213808.
 Iteration    1 A*A^-1 deviation from unit magnitude is 8.88D-15 for   2635.
 Iteration    1 A*A^-1 deviation from orthogonality  is 6.02D-15 for   1445    798.
 Iteration    1 A^-1*A deviation from unit magnitude is 7.99D-15 for   2635.
 Iteration    1 A^-1*A deviation from orthogonality  is 1.61D-06 for   1611   1592.
 Iteration    2 A*A^-1 deviation from unit magnitude is 8.44D-15 for    150.
 Iteration    2 A*A^-1 deviation from orthogonality  is 9.21D-15 for   1301    134.
 Iteration    2 A^-1*A deviation from unit magnitude is 2.00D-15 for   2007.
 Iteration    2 A^-1*A deviation from orthogonality  is 8.88D-16 for   1887   1021.
 E= -26191.0375233147    
 DIIS: error= 2.88D-01 at cycle   1 NSaved=   1.
 NSaved= 1 IEnMin= 1 EnMin= -26191.0375233147     IErMin= 1 ErrMin= 2.88D-01
 ErrMax= 2.88D-01  0.00D+00 EMaxC= 1.00D-01 BMatC= 3.32D+02 BMatP= 3.32D+02
 IDIUse=3 WtCom= 0.00D+00 WtEn= 1.00D+00
 Coeff-Com:  0.100D+01
 Coeff-En:   0.100D+01
 Coeff:      0.100D+01
 Gap=     0.358 Goal=   None    Shift=    0.000
 GapD=    0.358 DampG=1.000 DampE=0.125 DampFc=0.1250 IDamp=-1.
 Damping current iteration by 1.25D-01
 RMSDP=5.15D-03 MaxDP=6.23D-01              OVMax= 7.08D-01

 Cycle   2  Pass 1  IDiag  1:
 RMSU=  6.36D-04    CP:  1.01D+00
 E= -26192.0821305382     Delta-E=       -1.044607223528 Rises=F Damp=T
 DIIS: error= 2.50D-01 at cycle   2 NSaved=   2.
 NSaved= 2 IEnMin= 2 EnMin= -26192.0821305382     IErMin= 2 ErrMin= 2.50D-01
 ErrMax= 2.50D-01  0.00D+00 EMaxC= 1.00D-01 BMatC= 2.38D+02 BMatP= 3.32D+02
 IDIUse=3 WtCom= 0.00D+00 WtEn= 1.00D+00
 Coeff-Com: -0.508D+01 0.608D+01
 Coeff-En:   0.000D+00 0.100D+01
 Coeff:      0.000D+00 0.100D+01
 Gap=     0.005 Goal=   None    Shift=    0.000
 RMSDP=2.99D-03 MaxDP=2.96D-01 DE=-1.04D+00 OVMax= 6.55D-01

 Cycle   3  Pass 1  IDiag  1:
 RMSU=  2.09D-03    CP:  1.05D+00  3.00D+00
 E= -26191.3324478212     Delta-E=        0.749682717051 Rises=F Damp=F
 DIIS: error= 9.28D-02 at cycle   3 NSaved=   3.
 NSaved= 3 IEnMin= 2 EnMin= -26192.0821305382     IErMin= 3 ErrMin= 9.28D-02
 ErrMax= 9.28D-02  0.00D+00 EMaxC= 1.00D-01 BMatC= 2.46D+01 BMatP= 2.38D+02
 IDIUse=3 WtCom= 7.16D-02 WtEn= 9.28D-01
 EnCoef did   100 forward-backward iterations
 Coeff-Com:  0.359D+01-0.394D+01 0.135D+01
 Coeff-En:   0.467D+00 0.219D-01 0.511D+00
 Coeff:      0.691D+00-0.262D+00 0.571D+00
 Gap=     0.075 Goal=   None    Shift=    0.000
 RMSDP=3.05D-03 MaxDP=3.41D-01 DE= 7.50D-01 OVMax= 6.21D-01

 Cycle   4  Pass 1  IDiag  1:
 RMSU=  1.90D-03    CP:  1.03D+00  1.37D+00  2.66D-01
 E= -26193.1621656385     Delta-E=       -1.829717817360 Rises=F Damp=F
 DIIS: error= 3.13D-02 at cycle   4 NSaved=   4.
 NSaved= 4 IEnMin= 4 EnMin= -26193.1621656385     IErMin= 4 ErrMin= 3.13D-02
 ErrMax= 3.13D-02  0.00D+00 EMaxC= 1.00D-01 BMatC= 3.48D+00 BMatP= 2.46D+01
 IDIUse=3 WtCom= 6.87D-01 WtEn= 3.13D-01
 Coeff-Com: -0.135D+01 0.160D+01-0.107D-01 0.754D+00
 Coeff-En:   0.000D+00 0.000D+00 0.393D+00 0.607D+00
 Coeff:     -0.926D+00 0.110D+01 0.116D+00 0.708D+00
 Gap=     0.380 Goal=   None    Shift=    0.000
 RMSDP=3.17D-03 MaxDP=3.55D-01 DE=-1.83D+00 OVMax= 5.74D-01

 Cycle   5  Pass 1  IDiag  1:
 RMSU=  1.45D-03    CP:  1.02D+00  2.96D+00  4.16D-01 -3.75D-01
 E= -26193.4273790032     Delta-E=       -0.265213364710 Rises=F Damp=F
 DIIS: error= 2.19D-02 at cycle   5 NSaved=   5.
 NSaved= 5 IEnMin= 5 EnMin= -26193.4273790032     IErMin= 5 ErrMin= 2.19D-02
 ErrMax= 2.19D-02  0.00D+00 EMaxC= 1.00D-01 BMatC= 2.75D+00 BMatP= 3.48D+00
 IDIUse=3 WtCom= 7.81D-01 WtEn= 2.19D-01
 Coeff-Com: -0.143D+01 0.165D+01-0.231D+00 0.537D+00 0.470D+00
 Coeff-En:   0.000D+00 0.000D+00 0.000D+00 0.479D+00 0.521D+00
 Coeff:     -0.112D+01 0.129D+01-0.181D+00 0.525D+00 0.481D+00
 Gap=     0.101 Goal=   None    Shift=    0.000
 RMSDP=1.85D-03 MaxDP=2.08D-01 DE=-2.65D-01 OVMax= 4.85D-01

 Cycle   6  Pass 1  IDiag  1:
 RMSU=  8.38D-04    CP:  1.02D+00  2.34D+00  5.08D-01  1.67D-01  1.69D-01
 E= -26195.2789069964     Delta-E=       -1.851527993196 Rises=F Damp=F
 DIIS: error= 8.44D-03 at cycle   6 NSaved=   6.
 NSaved= 6 IEnMin= 6 EnMin= -26195.2789069964     IErMin= 6 ErrMin= 8.44D-03
 ErrMax= 8.44D-03  0.00D+00 EMaxC= 1.00D-01 BMatC= 3.14D-01 BMatP= 2.75D+00
 IDIUse=3 WtCom= 9.16D-01 WtEn= 8.44D-02
 Coeff-Com: -0.316D+00 0.364D+00-0.924D-01 0.240D+00 0.122D+00 0.682D+00
 Coeff-En:   0.000D+00 0.000D+00 0.000D+00 0.145D+00 0.000D+00 0.855D+00
 Coeff:     -0.289D+00 0.333D+00-0.846D-01 0.232D+00 0.112D+00 0.697D+00
 Gap=     0.138 Goal=   None    Shift=    0.000
 RMSDP=8.00D-04 MaxDP=6.43D-02 DE=-1.85D+00 OVMax= 1.41D-01

 Cycle   7  Pass 1  IDiag  1:
 RMSU=  6.13D-04    CP:  1.02D+00  1.83D+00  4.27D-01  2.57D-01  2.20D-01
                    CP:  6.38D-01
 E= -26195.4365148146     Delta-E=       -0.157607818146 Rises=F Damp=F
 DIIS: error= 3.50D-03 at cycle   7 NSaved=   7.
 NSaved= 7 IEnMin= 7 EnMin= -26195.4365148146     IErMin= 7 ErrMin= 3.50D-03
 ErrMax= 3.50D-03  0.00D+00 EMaxC= 1.00D-01 BMatC= 6.39D-02 BMatP= 3.14D-01
 IDIUse=3 WtCom= 9.65D-01 WtEn= 3.50D-02
 Coeff-Com: -0.255D-01 0.294D-01-0.201D-01 0.531D-01-0.280D-01 0.422D+00
 Coeff-Com:  0.570D+00
 Coeff-En:   0.000D+00 0.000D+00 0.000D+00 0.000D+00 0.000D+00 0.209D+00
 Coeff-En:   0.791D+00
 Coeff:     -0.246D-01 0.283D-01-0.194D-01 0.513D-01-0.271D-01 0.414D+00
 Coeff:      0.577D+00
 Gap=     0.103 Goal=   None    Shift=    0.000
 RMSDP=5.56D-04 MaxDP=9.25D-02 DE=-1.58D-01 OVMax= 1.33D-01

 Cycle   8  Pass 1  IDiag  1:
 RMSU=  2.74D-04    CP:  1.02D+00  1.98D+00  4.33D-01  3.17D-01  9.87D-02
                    CP:  8.35D-01  3.61D-01
 E= -26195.4804969316     Delta-E=       -0.043982117044 Rises=F Damp=F
 DIIS: error= 1.45D-03 at cycle   8 NSaved=   8.
 NSaved= 8 IEnMin= 8 EnMin= -26195.4804969316     IErMin= 8 ErrMin= 1.45D-03
 ErrMax= 1.45D-03  0.00D+00 EMaxC= 1.00D-01 BMatC= 1.10D-02 BMatP= 6.39D-02
 IDIUse=3 WtCom= 9.85D-01 WtEn= 1.45D-02
 Coeff-Com:  0.871D-02-0.101D-01-0.347D-02 0.958D-02-0.191D-01 0.182D+00
 Coeff-Com:  0.360D+00 0.473D+00
 Coeff-En:   0.000D+00 0.000D+00 0.000D+00 0.000D+00 0.000D+00 0.000D+00
 Coeff-En:   0.173D+00 0.827D+00
 Coeff:      0.859D-02-0.992D-02-0.342D-02 0.944D-02-0.188D-01 0.179D+00
 Coeff:      0.357D+00 0.478D+00
 Gap=     0.104 Goal=   None    Shift=    0.000
 RMSDP=1.89D-04 MaxDP=2.20D-02 DE=-4.40D-02 OVMax= 3.03D-02

 Cycle   9  Pass 1  IDiag  1:
 RMSU=  6.31D-05    CP:  1.02D+00  1.98D+00  4.42D-01  3.04D-01  1.26D-01
                    CP:  8.05D-01  5.68D-01  5.94D-01
 E= -26195.4898532746     Delta-E=       -0.009356342958 Rises=F Damp=F
 DIIS: error= 4.08D-04 at cycle   9 NSaved=   9.
 NSaved= 9 IEnMin= 9 EnMin= -26195.4898532746     IErMin= 9 ErrMin= 4.08D-04
 ErrMax= 4.08D-04  0.00D+00 EMaxC= 1.00D-01 BMatC= 8.03D-04 BMatP= 1.10D-02
 IDIUse=3 WtCom= 9.96D-01 WtEn= 4.08D-03
 Coeff-Com:  0.739D-02-0.860D-02-0.509D-03 0.116D-02-0.416D-02 0.590D-01
 Coeff-Com:  0.137D+00 0.270D+00 0.538D+00
 Coeff-En:   0.000D+00 0.000D+00 0.000D+00 0.000D+00 0.000D+00 0.000D+00
 Coeff-En:   0.000D+00 0.000D+00 0.100D+01
 Coeff:      0.736D-02-0.857D-02-0.507D-03 0.115D-02-0.414D-02 0.588D-01
 Coeff:      0.136D+00 0.269D+00 0.540D+00
 Gap=     0.098 Goal=   None    Shift=    0.000
 RMSDP=4.47D-05 MaxDP=4.75D-03 DE=-9.36D-03 OVMax= 5.45D-03

 Error on total polarization charges =  0.03068
 SCF Done:  E(RPBE-PBE) =  -26195.4898533     A.U. after    9 cycles
            NFock=  9  Conv=0.45D-04     -V/T= 2.0156
 KE= 2.579420594378D+04 PE=-7.398504688610D+04 EE= 1.602923947898D+04
 Leave Link  502 at Tue Feb  4 08:24:05 2020, MaxMem=  4026531840 cpu:      9288.6
 (Enter /scr/programs/g09/l801.exe)
 Range of M.O.s used for correlation:     1   815
 NBasis=   815 NAE=   152 NBE=   152 NFC=     0 NFV=     0
 NROrb=    815 NOA=   152 NOB=   152 NVA=   663 NVB=   663

 **** Warning!!: The largest alpha MO coefficient is  0.26007719D+02


 **** Warning!!: The smallest alpha delta epsilon is  0.97925036D-01

 Leave Link  801 at Tue Feb  4 08:24:05 2020, MaxMem=  4026531840 cpu:         1.0
 (Enter /scr/programs/g09/l1002.exe)
 Minotr:  Closed shell wavefunction.
 NEqPCM:  Using equilibrium solvation (IEInf=0, Eps=   8.9300, EpsInf=   2.0283)
          Direct CPHF calculation.
          Differentiating once with respect to magnetic field using GIAOs.
          Electric field/nuclear overlap derivatives assumed to be zero.
          Requested convergence is 1.0D-08 RMS, and 1.0D-07 maximum.
          Secondary convergence is 1.0D-12 RMS, and 1.0D-12 maximum.
          NewPWx=T KeepS1=F KeepF1=F KeepIn=T MapXYZ=F SortEE=F KeepMc=T.
          MDV=    4026530765 using IRadAn=       2.
 Defaulting to unpruned grid for atomic number  78.
 Defaulting to unpruned grid for atomic number  50.
 Generate precomputed XC quadrature information.
          Solving linear equations simultaneously, MaxMat=       0.
 FoFJK:  IHMeth= 1 ICntrl=    6127 DoSepK=F KAlg= 0 I1Cent=   0 FoldK=F
 IRaf=         1 NMat=   1 IRICut=       1 DoRegI=T DoRafI=F ISym2E= 0.
 Defaulting to unpruned grid for atomic number  78.
 Defaulting to unpruned grid for atomic number  78.
 Defaulting to unpruned grid for atomic number  78.
 Defaulting to unpruned grid for atomic number  78.
 Defaulting to unpruned grid for atomic number  78.
 Defaulting to unpruned grid for atomic number  78.
 Defaulting to unpruned grid for atomic number  78.
 Defaulting to unpruned grid for atomic number  78.
 Defaulting to unpruned grid for atomic number  78.
 Defaulting to unpruned grid for atomic number  78.
 Defaulting to unpruned grid for atomic number  78.
 Defaulting to unpruned grid for atomic number  78.
 Defaulting to unpruned grid for atomic number  78.
 Defaulting to unpruned grid for atomic number  78.
 Defaulting to unpruned grid for atomic number  78.
 Defaulting to unpruned grid for atomic number  78.
 Defaulting to unpruned grid for atomic number  78.
 Defaulting to unpruned grid for atomic number  78.
 Defaulting to unpruned grid for atomic number  78.
 Defaulting to unpruned grid for atomic number  78.
 Defaulting to unpruned grid for atomic number  78.
 Defaulting to unpruned grid for atomic number  78.
 Defaulting to unpruned grid for atomic number  78.
 Defaulting to unpruned grid for atomic number  78.
          There are     3 degrees of freedom in the 1st order CPHF.  IDoFFX=0 NUNeed=     3.
      3 vectors produced by pass  0 Test12= 3.36D-12 3.33D-08 XBig12= 1.02D+02 2.03D+00.
 AX will form     3 AO Fock derivatives at one time.
 InvSVY:  IOpt=1 It=  1 EMax= 0.00D+00
 Solved reduced A of dimension     3 with     3 vectors.
 Calculating GIAO nuclear magnetic shielding tensors.
 SCF GIAO Magnetic shielding tensor (ppm):
      1  Pt   Isotropic =  2586.5722   Anisotropy =  2967.3221
   XX=  3636.3124   YX=   886.1900   ZX=  -125.6692
   XY=   786.3670   YY=  3805.5472   ZY=   -39.7898
   XZ=  -125.6215   YZ=   -52.5564   ZZ=   317.8571
   Eigenvalues:   313.0422  2881.8875  4564.7870
      2  Cl   Isotropic =  1014.4984   Anisotropy =   419.3544
   XX=   793.6306   YX=    53.3844   ZX=    28.9833
   XY=   106.6801   YY=   959.2811   ZY=    -8.5222
   XZ=    47.8701   YZ=   -29.9924   ZZ=  1290.5835
   Eigenvalues:   757.8356   991.5916  1294.0680
      3  Cl   Isotropic =   883.3354   Anisotropy =   231.0794
   XX=   807.2288   YX=  -173.9403   ZX=    47.8132
   XY=  -170.6531   YY=   908.1775   ZY=    16.4787
   XZ=    48.2259   YZ=    64.6566   ZZ=   934.6000
   Eigenvalues:   663.6302   948.9878  1037.3884
      4  Sn   Isotropic =  2170.3886   Anisotropy =   832.6830
   XX=  2420.7395   YX=  -387.9000   ZX=   -11.6564
   XY=  -385.8848   YY=  2232.7388   ZY=     8.7112
   XZ=   -31.0769   YZ=    12.2036   ZZ=  1857.6875
   Eigenvalues:  1856.7187  1928.9365  2725.5106
      5  Cl   Isotropic =   763.4202   Anisotropy =   333.7368
   XX=   692.8874   YX=   -32.6571   ZX=  -109.0956
   XY=   -26.3653   YY=   702.2139   ZY=   114.7068
   XZ=  -105.3314   YZ=   104.2316   ZZ=   895.1593
   Eigenvalues:   636.0336   668.3157   985.9114
      6  Cl   Isotropic =   773.9684   Anisotropy =   301.9998
   XX=   914.9635   YX=    76.2327   ZX=   110.5294
   XY=    68.4718   YY=   653.7329   ZY=     6.4311
   XZ=    82.7179   YZ=    13.3775   ZZ=   753.2089
   Eigenvalues:   632.6648   713.9389   975.3016
      7  Cl   Isotropic =   745.4871   Anisotropy =   344.7158
   XX=   630.0440   YX=     7.8492   ZX=    36.4344
   XY=    25.8570   YY=   898.1663   ZY=  -146.0863
   XZ=    17.4457   YZ=  -140.9207   ZZ=   708.2511
   Eigenvalues:   598.8694   662.2943   975.2977
      8  P    Isotropic =   165.7072   Anisotropy =   228.1358
   XX=   202.9139   YX=   108.9513   ZX=     6.3047
   XY=    98.6129   YY=   221.5627   ZY=   -44.8508
   XZ=    -5.8685   YZ=    -4.8770   ZZ=    72.6450
   Eigenvalues:    64.7080   114.6159   317.7978
      9  O    Isotropic =   130.2552   Anisotropy =   154.1743
   XX=   143.9232   YX=   -41.7922   ZX=    -9.1864
   XY=   -31.9442   YY=   216.7640   ZY=    28.2893
   XZ=   -27.8138   YZ=   -15.0782   ZZ=    30.0783
   Eigenvalues:    27.1442   130.5832   233.0380
     10  O    Isotropic =   176.7531   Anisotropy =    48.6204
   XX=   178.7859   YX=    -4.1848   ZX=   -32.5797
   XY=    -4.8101   YY=   189.9973   ZY=    17.9130
   XZ=   -39.3189   YZ=    -9.0289   ZZ=   161.4763
   Eigenvalues:   133.1458   187.9469   209.1667
     11  O    Isotropic =   169.6744   Anisotropy =   101.9439
   XX=   179.6110   YX=     6.7195   ZX=    49.3678
   XY=    -4.1339   YY=   154.3130   ZY=    -6.3348
   XZ=    70.5123   YZ=   -10.7145   ZZ=   175.0993
   Eigenvalues:   116.0708   155.3155   237.6370
     12  C    Isotropic =   114.4054   Anisotropy =    77.5024
   XX=   113.5888   YX=    13.0161   ZX=    13.4470
   XY=    15.9212   YY=   108.0540   ZY=    41.7410
   XZ=    17.5217   YZ=    42.6211   ZZ=   121.5733
   Eigenvalues:    72.0687   105.0737   166.0737
     13  H    Isotropic =    26.7209   Anisotropy =     6.5278
   XX=    26.4783   YX=    -2.5638   ZX=     3.1027
   XY=    -0.8384   YY=    26.3629   ZY=     4.9115
   XZ=     2.6926   YZ=     2.8373   ZZ=    27.3215
   Eigenvalues:    21.0277    28.0623    31.0727
     14  H    Isotropic =    27.6105   Anisotropy =     7.0691
   XX=    28.9324   YX=     3.5104   ZX=    -2.0744
   XY=     3.5482   YY=    27.7780   ZY=     2.5962
   XZ=     0.1198   YZ=     3.9820   ZZ=    26.1211
   Eigenvalues:    22.1608    28.3475    32.3232
     15  C    Isotropic =   164.6282   Anisotropy =    24.0022
   XX=   170.6602   YX=    -6.1764   ZX=    -6.1017
   XY=    -3.2241   YY=   162.2814   ZY=    15.9769
   XZ=    -0.9597   YZ=    15.1856   ZZ=   160.9428
   Eigenvalues:   145.9956   167.2592   180.6296
     16  H    Isotropic =    30.4084   Anisotropy =    11.8005
   XX=    27.6980   YX=     1.2987   ZX=     1.3212
   XY=     1.6807   YY=    31.6699   ZY=     6.2501
   XZ=     1.6781   YZ=     5.9273   ZZ=    31.8572
   Eigenvalues:    25.6741    27.2756    38.2754
     17  H    Isotropic =    30.0399   Anisotropy =     4.9506
   XX=    29.0618   YX=    -1.8034   ZX=     2.4284
   XY=    -1.9816   YY=    32.4045   ZY=    -0.1172
   XZ=     1.3039   YZ=     0.5312   ZZ=    28.6535
   Eigenvalues:    26.6086    30.1709    33.3403
     18  H    Isotropic =    29.5282   Anisotropy =     7.5424
   XX=    31.7065   YX=     4.5753   ZX=    -2.0726
   XY=     3.4173   YY=    28.6193   ZY=     2.1015
   XZ=    -2.2663   YZ=     1.4936   ZZ=    28.2588
   Eigenvalues:    24.0923    29.9359    34.5564
     19  C    Isotropic =   104.9144   Anisotropy =    93.6499
   XX=    80.5710   YX=    16.9197   ZX=   -28.1790
   XY=    17.1830   YY=   116.2090   ZY=   -40.4917
   XZ=   -28.8553   YZ=   -35.7574   ZZ=   117.9633
   Eigenvalues:    64.7960    82.5996   167.3477
     20  H    Isotropic =    26.8232   Anisotropy =     9.4963
   XX=    27.3729   YX=    -0.6816   ZX=    -4.6305
   XY=     1.4329   YY=    26.2604   ZY=    -2.6844
   XZ=    -6.5091   YZ=    -1.7053   ZZ=    26.8362
   Eigenvalues:    21.1616    26.1539    33.1540
     21  H    Isotropic =    26.5358   Anisotropy =     8.9800
   XX=    22.6997   YX=     2.3972   ZX=    -2.0628
   XY=     1.2399   YY=    25.7349   ZY=    -3.6891
   XZ=     0.0903   YZ=    -1.6263   ZZ=    31.1729
   Eigenvalues:    21.8415    25.2434    32.5225
     22  C    Isotropic =   163.4237   Anisotropy =    22.2778
   XX=   149.4473   YX=    -2.9671   ZX=    -4.2358
   XY=     4.2858   YY=   178.2460   ZY=    -0.9829
   XZ=    -6.6897   YZ=     2.1532   ZZ=   162.5777
   Eigenvalues:   147.4501   164.5455   178.2756
     23  H    Isotropic =    29.3019   Anisotropy =     5.9484
   XX=    31.9569   YX=    -0.0653   ZX=    -2.5976
   XY=    -1.3113   YY=    29.3101   ZY=    -1.6909
   XZ=    -3.2916   YZ=    -1.8401   ZZ=    26.6387
   Eigenvalues:    24.5737    30.0646    33.2675
     24  H    Isotropic =    29.8747   Anisotropy =     4.1730
   XX=    29.8817   YX=     2.2233   ZX=     1.0378
   XY=     2.8327   YY=    29.4600   ZY=     0.9515
   XZ=     1.5710   YZ=    -0.8190   ZZ=    30.2823
   Eigenvalues:    26.9149    30.0525    32.6567
     25  H    Isotropic =    30.2071   Anisotropy =    11.7291
   XX=    27.2788   YX=     2.6125   ZX=    -2.1599
   XY=     2.8446   YY=    33.1531   ZY=    -5.0720
   XZ=    -2.3677   YZ=    -4.8729   ZZ=    30.1895
   Eigenvalues:    26.0427    26.5521    38.0265
     26  C    Isotropic =   112.2739   Anisotropy =    78.9869
   XX=   161.0060   YX=     8.2018   ZX=   -17.9669
   XY=     4.5210   YY=    96.1739   ZY=   -11.6291
   XZ=   -13.6225   YZ=    -8.4864   ZZ=    79.6419
   Eigenvalues:    73.2608    98.6292   164.9319
     27  H    Isotropic =    26.9437   Anisotropy =     7.6558
   XX=    31.7342   YX=    -1.2956   ZX=    -2.0869
   XY=    -1.2570   YY=    23.1215   ZY=    -2.9311
   XZ=    -0.3100   YZ=    -2.1227   ZZ=    25.9753
   Eigenvalues:    21.3649    27.4186    32.0475
     28  H    Isotropic =    27.1013   Anisotropy =     8.6205
   XX=    31.6659   YX=     2.8645   ZX=     1.5751
   XY=     1.3936   YY=    28.8023   ZY=    -0.1470
   XZ=     0.7291   YZ=    -0.9590   ZZ=    20.8358
   Eigenvalues:    20.6379    27.8178    32.8483
     29  C    Isotropic =   166.4046   Anisotropy =    26.8466
   XX=   175.2854   YX=    -6.5341   ZX=     1.5727
   XY=   -10.4443   YY=   166.9319   ZY=   -10.1494
   XZ=     7.4296   YZ=   -12.0349   ZZ=   156.9965
   Eigenvalues:   149.7782   165.1333   184.3023
     30  H    Isotropic =    29.6945   Anisotropy =     5.4093
   XX=    30.8987   YX=    -0.2111   ZX=     2.4661
   XY=     0.5109   YY=    32.9982   ZY=     1.4903
   XZ=     2.2277   YZ=     0.8294   ZZ=    25.1865
   Eigenvalues:    24.2218    31.5609    33.3007
     31  H    Isotropic =    30.1632   Anisotropy =    11.9051
   XX=    37.9803   YX=    -0.8917   ZX=    -0.5924
   XY=    -1.3312   YY=    26.3986   ZY=    -0.6545
   XZ=    -0.3426   YZ=    -0.5642   ZZ=    26.1106
   Eigenvalues:    25.5369    26.8527    38.0999
     32  H    Isotropic =    30.1050   Anisotropy =     8.0798
   XX=    29.5171   YX=    -1.2678   ZX=     3.1463
   XY=    -0.8164   YY=    26.8743   ZY=    -0.8951
   XZ=     2.8213   YZ=     0.3161   ZZ=    33.9235
   Eigenvalues:    26.4147    28.4087    35.4915
 End of Minotr F.D. properties file   721 does not exist.
 End of Minotr F.D. properties file   722 does not exist.
 End of Minotr F.D. properties file   788 does not exist.
 Leave Link 1002 at Tue Feb  4 08:33:46 2020, MaxMem=  4026531840 cpu:     13825.4
 (Enter /scr/programs/g09/l601.exe)
 Copying SCF densities to generalized density rwf, IOpCl= 0 IROHF=0.

 **********************************************************************

            Population analysis using the SCF density.

 **********************************************************************

 Orbital symmetries:
       Occupied  (A) (A) (A) (A) (A) (A) (A) (A) (A) (A) (A) (A)
                 (A) (A) (A) (A) (A) (A) (A) (A) (A) (A) (A) (A)
                 (A) (A) (A) (A) (A) (A) (A) (A) (A) (A) (A) (A)
                 (A) (A) (A) (A) (A) (A) (A) (A) (A) (A) (A) (A)
                 (A) (A) (A) (A) (A) (A) (A) (A) (A) (A) (A) (A)
                 (A) (A) (A) (A) (A) (A) (A) (A) (A) (A) (A) (A)
                 (A) (A) (A) (A) (A) (A) (A) (A) (A) (A) (A) (A)
                 (A) (A) (A) (A) (A) (A) (A) (A) (A) (A) (A) (A)
                 (A) (A) (A) (A) (A) (A) (A) (A) (A) (A) (A) (A)
                 (A) (A) (A) (A) (A) (A) (A) (A) (A) (A) (A) (A)
                 (A) (A) (A) (A) (A) (A) (A) (A) (A) (A) (A) (A)
                 (A) (A) (A) (A) (A) (A) (A) (A) (A) (A) (A) (A)
                 (A) (A) (A) (A) (A) (A) (A) (A)
       Virtual   (A) (A) (A) (A) (A) (A) (A) (A) (A) (A) (A) (A)
                 (A) (A) (A) (A) (A) (A) (A) (A) (A) (A) (A) (A)
                 (A) (A) (A) (A) (A) (A) (A) (A) (A) (A) (A) (A)
                 (A) (A) (A) (A) (A) (A) (A) (A) (A) (A) (A) (A)
                 (A) (A) (A) (A) (A) (A) (A) (A) (A) (A) (A) (A)
                 (A) (A) (A) (A) (A) (A) (A) (A) (A) (A) (A) (A)
                 (A) (A) (A) (A) (A) (A) (A) (A) (A) (A) (A) (A)
                 (A) (A) (A) (A) (A) (A) (A) (A) (A) (A) (A) (A)
                 (A) (A) (A) (A) (A) (A) (A) (A) (A) (A) (A) (A)
                 (A) (A) (A) (A) (A) (A) (A) (A) (A) (A) (A) (A)
                 (A) (A) (A) (A) (A) (A) (A) (A) (A) (A) (A) (A)
                 (A) (A) (A) (A) (A) (A) (A) (A) (A) (A) (A) (A)
                 (A) (A) (A) (A) (A) (A) (A) (A) (A) (A) (A) (A)
                 (A) (A) (A) (A) (A) (A) (A) (A) (A) (A) (A) (A)
                 (A) (A) (A) (A) (A) (A) (A) (A) (A) (A) (A) (A)
                 (A) (A) (A) (A) (A) (A) (A) (A) (A) (A) (A) (A)
                 (A) (A) (A) (A) (A) (A) (A) (A) (A) (A) (A) (A)
                 (A) (A) (A) (A) (A) (A) (A) (A) (A) (A) (A) (A)
                 (A) (A) (A) (A) (A) (A) (A) (A) (A) (A) (A) (A)
                 (A) (A) (A) (A) (A) (A) (A) (A) (A) (A) (A) (A)
                 (A) (A) (A) (A) (A) (A) (A) (A) (A) (A) (A) (A)
                 (A) (A) (A) (A) (A) (A) (A) (A) (A) (A) (A) (A)
                 (A) (A) (A) (A) (A) (A) (A) (A) (A) (A) (A) (A)
                 (A) (A) (A) (A) (A) (A) (A) (A) (A) (A) (A) (A)
                 (A) (A) (A) (A) (A) (A) (A) (A) (A) (A) (A) (A)
                 (A) (A) (A) (A) (A) (A) (A) (A) (A) (A) (A) (A)
                 (A) (A) (A) (A) (A) (A) (A) (A) (A) (A) (A) (A)
                 (A) (A) (A) (A) (A) (A) (A) (A) (A) (A) (A) (A)
                 (A) (A) (A) (A) (A) (A) (A) (A) (A) (A) (A) (A)
                 (A) (A) (A) (A) (A) (A) (A) (A) (A) (A) (A) (A)
                 (A) (A) (A) (A) (A) (A) (A) (A) (A) (A) (A) (A)
                 (A) (A) (A) (A) (A) (A) (A) (A) (A) (A) (A) (A)
                 (A) (A) (A) (A) (A) (A) (A) (A) (A) (A) (A) (A)
                 (A) (A) (A) (A) (A) (A) (A) (A) (A) (A) (A) (A)
                 (A) (A) (A) (A) (A) (A) (A) (A) (A) (A) (A) (A)
                 (A) (A) (A) (A) (A) (A) (A) (A) (A) (A) (A) (A)
                 (A) (A) (A) (A) (A) (A) (A) (A) (A) (A) (A) (A)
                 (A) (A) (A) (A) (A) (A) (A) (A) (A) (A) (A) (A)
                 (A) (A) (A) (A) (A) (A) (A) (A) (A) (A) (A) (A)
                 (A) (A) (A) (A) (A) (A) (A) (A) (A) (A) (A) (A)
                 (A) (A) (A) (A) (A) (A) (A) (A) (A) (A) (A) (A)
                 (A) (A) (A) (A) (A) (A) (A) (A) (A) (A) (A) (A)
                 (A) (A) (A) (A) (A) (A) (A) (A) (A) (A) (A) (A)
                 (A) (A) (A) (A) (A) (A) (A) (A) (A) (A) (A) (A)
                 (A) (A) (A) (A) (A) (A) (A) (A) (A) (A) (A) (A)
                 (A) (A) (A) (A) (A) (A) (A) (A) (A) (A) (A) (A)
                 (A) (A) (A) (A) (A) (A) (A) (A) (A) (A) (A) (A)
                 (A) (A) (A) (A) (A) (A) (A) (A) (A) (A) (A) (A)
                 (A) (A) (A) (A) (A) (A) (A) (A) (A) (A) (A) (A)
                 (A) (A) (A) (A) (A) (A) (A) (A) (A) (A) (A) (A)
                 (A) (A) (A) (A) (A) (A) (A) (A) (A) (A) (A) (A)
                 (A) (A) (A) (A) (A) (A) (A) (A) (A) (A) (A) (A)
                 (A) (A) (A) (A) (A) (A) (A) (A) (A) (A) (A) (A)
                 (A) (A) (A) (A) (A) (A) (A) (A) (A) (A) (A) (A)
                 (A) (A) (A) (A) (A) (A) (A) (A) (A) (A) (A) (A)
                 (A) (A) (A)
 The electronic state is 1-A.
 Alpha  occ. eigenvalues -- ********************-427.53226-414.86289-414.86194
 Alpha  occ. eigenvalues -- -414.85920-149.65071-141.92896-141.92890-141.92816
 Alpha  occ. eigenvalues -- -100.54867-100.54792-100.54596-100.51268-100.51248
 Alpha  occ. eigenvalues --  -99.91287 -92.07207 -92.07017 -92.06599 -79.03072
 Alpha  occ. eigenvalues --  -79.02929 -79.02706 -79.02595 -79.02544 -76.39690
 Alpha  occ. eigenvalues --  -28.81377 -25.16027 -25.16007 -25.15767 -20.82785
 Alpha  occ. eigenvalues --  -18.78462 -18.78450 -18.77579 -17.70925 -17.70924
 Alpha  occ. eigenvalues --  -17.70763 -17.70751 -17.70705 -17.39769 -17.39389
 Alpha  occ. eigenvalues --  -17.38503 -11.58146 -11.57643 -11.57191 -11.56954
 Alpha  occ. eigenvalues --  -11.56848  -9.95209  -9.94639  -9.94435  -9.88295
 Alpha  occ. eigenvalues --   -9.87784  -9.87669  -9.12693  -9.12668  -9.12465
 Alpha  occ. eigenvalues --   -9.09083  -9.08966  -6.96508  -6.96458  -6.96256
 Alpha  occ. eigenvalues --   -6.95886  -6.95855  -6.95853  -6.95843  -6.95666
 Alpha  occ. eigenvalues --   -6.95628  -6.92830  -6.92741  -6.92323  -6.92266
 Alpha  occ. eigenvalues --   -6.92214  -6.92145  -6.41503  -4.64241  -4.64197
 Alpha  occ. eigenvalues --   -4.63658  -4.50019  -3.23467  -3.23437  -3.23047
 Alpha  occ. eigenvalues --   -3.12998  -3.12944  -3.12442  -3.12062  -3.11933
 Alpha  occ. eigenvalues --   -3.11740  -3.11707  -2.85761  -1.81255  -1.80401
 Alpha  occ. eigenvalues --   -1.77824  -1.02499  -1.02480  -1.02132  -1.02068
 Alpha  occ. eigenvalues --   -1.02028  -0.99290  -0.94500  -0.93996  -0.71482
 Alpha  occ. eigenvalues --   -0.71377  -0.69851  -0.69683  -0.68964  -0.68589
 Alpha  occ. eigenvalues --   -0.66674  -0.66112  -0.61345  -0.57533  -0.56536
 Alpha  occ. eigenvalues --   -0.51355  -0.47890  -0.46860  -0.43610  -0.42599
 Alpha  occ. eigenvalues --   -0.42417  -0.41415  -0.40755  -0.39310  -0.37401
 Alpha  occ. eigenvalues --   -0.36437  -0.34872  -0.34573  -0.34134  -0.33244
 Alpha  occ. eigenvalues --   -0.32722  -0.32564  -0.32097  -0.31998  -0.31656
 Alpha  occ. eigenvalues --   -0.30896  -0.29882  -0.29206  -0.28593  -0.28175
 Alpha  occ. eigenvalues --   -0.28012  -0.27437  -0.26839  -0.26682  -0.26647
 Alpha  occ. eigenvalues --   -0.26127  -0.25524  -0.25448  -0.25204  -0.24865
 Alpha  occ. eigenvalues --   -0.23955  -0.23111  -0.21764  -0.21048  -0.20860
 Alpha  occ. eigenvalues --   -0.20753  -0.20198
 Alpha virt. eigenvalues --   -0.10406  -0.04390  -0.02200  -0.01893  -0.01116
 Alpha virt. eigenvalues --   -0.00382   0.00308   0.00671   0.00722   0.01687
 Alpha virt. eigenvalues --    0.02311   0.02383   0.02664   0.03356   0.04429
 Alpha virt. eigenvalues --    0.04979   0.05036   0.05768   0.05935   0.06026
 Alpha virt. eigenvalues --    0.06532   0.06677   0.06710   0.07115   0.07188
 Alpha virt. eigenvalues --    0.07389   0.07913   0.08495   0.08614   0.08841
 Alpha virt. eigenvalues --    0.09131   0.09694   0.09885   0.10128   0.10407
 Alpha virt. eigenvalues --    0.10571   0.10931   0.11049   0.11264   0.11638
 Alpha virt. eigenvalues --    0.12099   0.12201   0.12650   0.12873   0.13153
 Alpha virt. eigenvalues --    0.13261   0.13643   0.13778   0.13916   0.14144
 Alpha virt. eigenvalues --    0.14465   0.14924   0.15322   0.15587   0.16129
 Alpha virt. eigenvalues --    0.16435   0.16795   0.17239   0.17567   0.17758
 Alpha virt. eigenvalues --    0.17897   0.18362   0.18545   0.19227   0.19749
 Alpha virt. eigenvalues --    0.19901   0.20095   0.20409   0.20428   0.21177
 Alpha virt. eigenvalues --    0.21539   0.21771   0.22507   0.22762   0.23294
 Alpha virt. eigenvalues --    0.23896   0.24202   0.24372   0.24528   0.24943
 Alpha virt. eigenvalues --    0.25284   0.25496   0.25730   0.26639   0.27098
 Alpha virt. eigenvalues --    0.27696   0.27857   0.28495   0.28856   0.28936
 Alpha virt. eigenvalues --    0.29071   0.29600   0.29910   0.30051   0.30518
 Alpha virt. eigenvalues --    0.30782   0.31167   0.31289   0.31992   0.32434
 Alpha virt. eigenvalues --    0.32565   0.32594   0.33296   0.33413   0.33599
 Alpha virt. eigenvalues --    0.33711   0.34359   0.34652   0.34833   0.35180
 Alpha virt. eigenvalues --    0.35797   0.35876   0.36078   0.36340   0.36723
 Alpha virt. eigenvalues --    0.37121   0.37329   0.37493   0.38222   0.38749
 Alpha virt. eigenvalues --    0.39069   0.39637   0.39951   0.40003   0.40419
 Alpha virt. eigenvalues --    0.41209   0.41216   0.41631   0.42514   0.42606
 Alpha virt. eigenvalues --    0.43055   0.43289   0.43498   0.43981   0.44310
 Alpha virt. eigenvalues --    0.45130   0.45546   0.45885   0.46045   0.46602
 Alpha virt. eigenvalues --    0.47182   0.47467   0.47573   0.47744   0.47965
 Alpha virt. eigenvalues --    0.48491   0.48799   0.49467   0.50049   0.50209
 Alpha virt. eigenvalues --    0.50382   0.51110   0.51547   0.51925   0.52068
 Alpha virt. eigenvalues --    0.52553   0.52761   0.53123   0.53226   0.54290
 Alpha virt. eigenvalues --    0.54376   0.54861   0.55113   0.55545   0.55781
 Alpha virt. eigenvalues --    0.56247   0.56558   0.57411   0.57743   0.58381
 Alpha virt. eigenvalues --    0.58559   0.58731   0.58948   0.59299   0.59879
 Alpha virt. eigenvalues --    0.60307   0.60891   0.61361   0.61587   0.62409
 Alpha virt. eigenvalues --    0.62660   0.62921   0.63381   0.63577   0.64041
 Alpha virt. eigenvalues --    0.64411   0.64933   0.65189   0.65421   0.65925
 Alpha virt. eigenvalues --    0.66471   0.66855   0.67617   0.67852   0.68132
 Alpha virt. eigenvalues --    0.68773   0.68854   0.69453   0.69529   0.69679
 Alpha virt. eigenvalues --    0.70318   0.71066   0.71532   0.72094   0.72148
 Alpha virt. eigenvalues --    0.72505   0.72779   0.73532   0.74162   0.74736
 Alpha virt. eigenvalues --    0.75280   0.75801   0.76097   0.76496   0.77076
 Alpha virt. eigenvalues --    0.77250   0.77702   0.78247   0.79033   0.79825
 Alpha virt. eigenvalues --    0.80159   0.80846   0.81119   0.81842   0.82401
 Alpha virt. eigenvalues --    0.82439   0.83322   0.83442   0.83746   0.84458
 Alpha virt. eigenvalues --    0.85685   0.85811   0.86944   0.87898   0.88196
 Alpha virt. eigenvalues --    0.89063   0.89285   0.89658   0.90162   0.90433
 Alpha virt. eigenvalues --    0.90962   0.91414   0.91636   0.92578   0.93081
 Alpha virt. eigenvalues --    0.93314   0.94858   0.94953   0.95649   0.96395
 Alpha virt. eigenvalues --    0.96988   0.98392   0.98789   0.99158   0.99486
 Alpha virt. eigenvalues --    1.00110   1.00331   1.01317   1.01475   1.01596
 Alpha virt. eigenvalues --    1.02069   1.03354   1.03628   1.03943   1.04212
 Alpha virt. eigenvalues --    1.05255   1.05755   1.06048   1.06530   1.07242
 Alpha virt. eigenvalues --    1.07426   1.08421   1.08573   1.09145   1.09416
 Alpha virt. eigenvalues --    1.10258   1.10515   1.11018   1.12050   1.12573
 Alpha virt. eigenvalues --    1.12813   1.13699   1.13979   1.14560   1.14921
 Alpha virt. eigenvalues --    1.15384   1.15720   1.16346   1.16939   1.17099
 Alpha virt. eigenvalues --    1.17446   1.18198   1.18847   1.19434   1.20281
 Alpha virt. eigenvalues --    1.20499   1.21962   1.22054   1.23184   1.23370
 Alpha virt. eigenvalues --    1.24191   1.24525   1.25092   1.25750   1.26752
 Alpha virt. eigenvalues --    1.27336   1.28986   1.29165   1.29640   1.30664
 Alpha virt. eigenvalues --    1.31139   1.32102   1.32795   1.33147   1.33336
 Alpha virt. eigenvalues --    1.34686   1.35171   1.36147   1.36446   1.37828
 Alpha virt. eigenvalues --    1.38284   1.38795   1.40159   1.40829   1.41677
 Alpha virt. eigenvalues --    1.42681   1.43875   1.44742   1.46139   1.46418
 Alpha virt. eigenvalues --    1.47914   1.48522   1.50538   1.51569   1.52224
 Alpha virt. eigenvalues --    1.53320   1.54961   1.57710   1.58770   1.60037
 Alpha virt. eigenvalues --    1.60591   1.61281   1.62482   1.63920   1.65541
 Alpha virt. eigenvalues --    1.66066   1.67682   1.68582   1.71345   1.71811
 Alpha virt. eigenvalues --    1.73089   1.73451   1.74073   1.75283   1.76168
 Alpha virt. eigenvalues --    1.77263   1.77749   1.78304   1.79084   1.79738
 Alpha virt. eigenvalues --    1.80771   1.82110   1.83643   1.84574   1.85524
 Alpha virt. eigenvalues --    1.85749   1.88318   1.88365   1.89777   1.90064
 Alpha virt. eigenvalues --    1.91167   1.91597   1.92151   1.92634   1.93232
 Alpha virt. eigenvalues --    1.93531   1.94648   1.95323   1.96438   1.96522
 Alpha virt. eigenvalues --    1.98107   1.99198   1.99509   2.00338   2.02032
 Alpha virt. eigenvalues --    2.02835   2.04688   2.05266   2.07217   2.08429
 Alpha virt. eigenvalues --    2.08746   2.09862   2.12187   2.13115   2.14212
 Alpha virt. eigenvalues --    2.14450   2.15387   2.16056   2.16968   2.17176
 Alpha virt. eigenvalues --    2.18116   2.19113   2.19687   2.20421   2.21232
 Alpha virt. eigenvalues --    2.22396   2.24024   2.24258   2.25274   2.26776
 Alpha virt. eigenvalues --    2.27689   2.28423   2.29448   2.30994   2.31107
 Alpha virt. eigenvalues --    2.31517   2.32586   2.33710   2.33991   2.35420
 Alpha virt. eigenvalues --    2.36249   2.37135   2.38248   2.38517   2.38814
 Alpha virt. eigenvalues --    2.40370   2.41920   2.43512   2.43916   2.46700
 Alpha virt. eigenvalues --    2.47077   2.49288   2.49716   2.50889   2.52836
 Alpha virt. eigenvalues --    2.54509   2.54650   2.55183   2.58153   2.58926
 Alpha virt. eigenvalues --    2.60958   2.62411   2.63983   2.66809   2.68379
 Alpha virt. eigenvalues --    2.70002   2.73121   2.73621   2.74561   2.75651
 Alpha virt. eigenvalues --    2.75955   2.77026   2.77568   2.79463   2.80452
[...]
 Alpha virt. eigenvalues --    9.90384   9.91985   9.92277   9.94815   9.99038
 Alpha virt. eigenvalues --   10.01032  10.02236  10.03826  10.08286  10.12131
 Alpha virt. eigenvalues --   14.02156  15.52439  16.67104  16.69471  16.80925
 Alpha virt. eigenvalues --   16.88994  16.90898  16.94392  16.97728  16.99913
 Alpha virt. eigenvalues --   17.05263  17.07630  17.09971  20.83957  20.97769
 Alpha virt. eigenvalues --   21.05138  25.42585  25.47951  25.53520  25.86253
 Alpha virt. eigenvalues --   30.29240  30.30415  30.34379  31.64566  31.65694
 Alpha virt. eigenvalues --   31.71370  31.72311  31.76280  42.87128  42.88041
 Alpha virt. eigenvalues --   42.91238  42.93713  43.06039  61.73055  62.90368
 Alpha virt. eigenvalues --   78.00361  78.02302  78.12544  78.19954  78.21689
 Alpha virt. eigenvalues --   81.91477  85.99976  86.11746  86.17789  89.18139
 Alpha virt. eigenvalues --   89.21881  89.24162  89.30670  89.32978  89.35349
 Alpha virt. eigenvalues --  121.79289 121.83022 121.87458 163.05886 163.07503
 Alpha virt. eigenvalues --  163.11604 239.09372 257.04720 332.05516 428.63722
 Alpha virt. eigenvalues --  428.72951 428.77596 431.61667 431.63741 431.74526
 Alpha virt. eigenvalues --  431.82128 431.84024 590.17470 590.20364 590.23752
 Alpha virt. eigenvalues --  772.74687 839.503042068.367052529.887575495.18516
 Alpha virt. eigenvalues -- ******************************
          Condensed to atoms (all electrons):
               1          2          3          4          5          6
     1  Pt  78.737286   0.082606   0.051364   0.048029   0.019646  -0.000732
     2  Cl   0.082606  17.440800   0.001003   0.019393   0.005080  -0.003046
     3  Cl   0.051364   0.001003  17.476756  -0.011127   0.000731   0.001300
     4  Sn   0.048029   0.019393  -0.011127  48.864209   0.202322   0.185662
     5  Cl   0.019646   0.005080   0.000731   0.202322  17.015368   0.008425
     6  Cl  -0.000732  -0.003046   0.001300   0.185662   0.008425  17.005954
     7  Cl   0.030769   0.000200   0.000995   0.176937   0.013603   0.006925
     8  P   -1.454339   0.005579   0.060478   0.182784  -0.007671  -0.008182
     9  O    0.147411  -0.001250  -0.001938   0.014243  -0.000954   0.000374
    10  O    0.124480  -0.000464  -0.006685  -0.013648   0.000314   0.000267
    11  O    0.141647  -0.000488   0.010984  -0.004550   0.000150  -0.000021
    12  C   -0.034656   0.000520  -0.000586   0.002523   0.000345  -0.000211
    13  H   -0.003976   0.000044   0.000047   0.003470  -0.000538   0.000008
    14  H   -0.007403  -0.000015   0.000022  -0.001886   0.000269   0.000001
    15  C    0.004374  -0.000007  -0.000070   0.002964  -0.004332   0.000105
    16  H   -0.000152  -0.000003   0.000006   0.001503  -0.000254  -0.000004
    17  H   -0.002947   0.000011  -0.000002   0.009339  -0.002398   0.000023
    18  H    0.000227   0.000059   0.000045  -0.001171   0.011871   0.000118
    19  C   -0.003070   0.000275   0.002105   0.007439  -0.000181   0.000055
    20  H   -0.005135  -0.000023   0.000082  -0.001096   0.000005   0.000002
    21  H   -0.002124   0.000057   0.000032   0.002956  -0.000007  -0.000038
    22  C    0.005001   0.000008  -0.000496  -0.004636   0.000265   0.000049
    23  H   -0.003255   0.000011  -0.000050  -0.000612  -0.000035   0.000052
    24  H   -0.003460   0.000006  -0.000013   0.000292  -0.000025  -0.000002
    25  H   -0.000634  -0.000002   0.000020   0.000258   0.000003  -0.000001
    26  C   -0.070758  -0.000125  -0.012492  -0.000528   0.000004   0.000006
    27  H   -0.007081  -0.000052  -0.000994   0.000406   0.000001  -0.000003
    28  H   -0.003923   0.000000   0.000708  -0.001117  -0.000002   0.000001
    29  C    0.002958   0.000125  -0.000692   0.000539  -0.000027   0.000001
    30  H   -0.004879   0.000053   0.012298  -0.000139  -0.000002   0.000000
    31  H   -0.001154  -0.000004  -0.000088  -0.000066   0.000000   0.000000
    32  H   -0.000743  -0.000008  -0.001276   0.000292  -0.000001   0.000000
               7          8          9         10         11         12
     1  Pt   0.030769  -1.454339   0.147411   0.124480   0.141647  -0.034656
     2  Cl   0.000200   0.005579  -0.001250  -0.000464  -0.000488   0.000520
     3  Cl   0.000995   0.060478  -0.001938  -0.006685   0.010984  -0.000586
     4  Sn   0.176937   0.182784   0.014243  -0.013648  -0.004550   0.002523
     5  Cl   0.013603  -0.007671  -0.000954   0.000314   0.000150   0.000345
     6  Cl   0.006925  -0.008182   0.000374   0.000267  -0.000021  -0.000211
     7  Cl  17.047665  -0.022482   0.002727   0.001946   0.000248  -0.005456
     8  P   -0.022482  16.556023   0.151643   0.163886   0.178577  -0.216277
     9  O    0.002727   0.151643   7.676750  -0.020384  -0.032961   0.160872
    10  O    0.001946   0.163886  -0.020384   7.643971  -0.026031  -0.016383
    11  O    0.000248   0.178577  -0.032961  -0.026031   7.571569   0.038009
    12  C   -0.005456  -0.216277   0.160872  -0.016383   0.038009   5.020594
    13  H    0.000307   0.026110   0.002986  -0.000093   0.000467   0.367575
    14  H   -0.000881   0.053200   0.004500   0.000409  -0.001798   0.340989
    15  C    0.004351  -0.015685   0.021748   0.000371  -0.001462   0.304659
    16  H   -0.000202   0.001736   0.000048   0.000000  -0.000007   0.034963
    17  H    0.002026   0.002004  -0.000094  -0.000012   0.000004   0.029137
    18  H   -0.001417   0.005747  -0.002573  -0.000001   0.000020   0.033108
    19  C    0.000392  -0.417130   0.012324   0.167686   0.018150   0.005244
    20  H    0.000134   0.030120  -0.000042   0.004512  -0.000726  -0.000337
    21  H   -0.000296   0.012984  -0.000296  -0.001978   0.000090   0.000091
    22  C   -0.000327   0.048274  -0.003131   0.041275  -0.006324  -0.020034
    23  H    0.005876   0.007304   0.004685  -0.004916  -0.000020   0.003882
    24  H   -0.000974   0.015680   0.002741  -0.006339   0.000648   0.006353
    25  H   -0.000430   0.003815  -0.000186   0.000609  -0.000003  -0.000246
    26  C    0.000318  -0.167389  -0.001967   0.036967   0.178998  -0.017262
    27  H    0.000127   0.048973  -0.000025   0.008707  -0.001641   0.000138
    28  H   -0.000053   0.041058  -0.001446  -0.002875   0.010362   0.002002
    29  C   -0.000081  -0.043440   0.000534  -0.003251   0.007415   0.002039
    30  H   -0.000005   0.001935  -0.000001   0.000042  -0.002479   0.000006
    31  H    0.000001   0.003687  -0.000001  -0.000005   0.000240   0.000010
    32  H    0.000007   0.008576  -0.000007   0.000004  -0.001482  -0.000041
              13         14         15         16         17         18
     1  Pt  -0.003976  -0.007403   0.004374  -0.000152  -0.002947   0.000227
     2  Cl   0.000044  -0.000015  -0.000007  -0.000003   0.000011   0.000059
     3  Cl   0.000047   0.000022  -0.000070   0.000006  -0.000002   0.000045
     4  Sn   0.003470  -0.001886   0.002964   0.001503   0.009339  -0.001171
     5  Cl  -0.000538   0.000269  -0.004332  -0.000254  -0.002398   0.011871
     6  Cl   0.000008   0.000001   0.000105  -0.000004   0.000023   0.000118
     7  Cl   0.000307  -0.000881   0.004351  -0.000202   0.002026  -0.001417
     8  P    0.026110   0.053200  -0.015685   0.001736   0.002004   0.005747
     9  O    0.002986   0.004500   0.021748   0.000048  -0.000094  -0.002573
    10  O   -0.000093   0.000409   0.000371   0.000000  -0.000012  -0.000001
    11  O    0.000467  -0.001798  -0.001462  -0.000007   0.000004   0.000020
    12  C    0.367575   0.340989   0.304659   0.034963   0.029137   0.033108
    13  H    0.475287   0.010125   0.008542  -0.001174  -0.000747  -0.001537
    14  H    0.010125   0.495074   0.003489  -0.001256  -0.001859  -0.000865
    15  C    0.008542   0.003489   4.795046   0.365307   0.372660   0.366957
    16  H   -0.001174  -0.001256   0.365307   0.430638   0.010035   0.010169
    17  H   -0.000747  -0.001859   0.372660   0.010035   0.451313   0.012299
    18  H   -0.001537  -0.000865   0.366957   0.010169   0.012299   0.459131
    19  C    0.000854  -0.002116   0.001490   0.000001   0.000025   0.000016
    20  H    0.000000   0.000021  -0.000002   0.000000   0.000000   0.000000
    21  H    0.000000   0.000003  -0.000002   0.000000   0.000000   0.000000
    22  C   -0.001112   0.010417  -0.005626  -0.000006  -0.000095  -0.000024
    23  H    0.000041  -0.000351   0.001132   0.000005   0.000115   0.000005
    24  H    0.000123  -0.000612   0.000187   0.000006   0.000008   0.000002
    25  H    0.000000   0.000083  -0.000014   0.000000   0.000000   0.000000
    26  C    0.001308   0.000079   0.001339  -0.000012  -0.000001  -0.000009
    27  H    0.000010  -0.000012  -0.000009   0.000000   0.000000   0.000000
    28  H    0.000149   0.000869  -0.000040   0.000000   0.000000   0.000000
    29  C    0.000351  -0.000125  -0.000047   0.000000   0.000000   0.000001
    30  H   -0.000002   0.000000   0.000000   0.000000   0.000000   0.000000
    31  H    0.000002  -0.000001   0.000000   0.000000   0.000000   0.000000
    32  H    0.000003   0.000002   0.000001   0.000000   0.000000   0.000000
              19         20         21         22         23         24
     1  Pt  -0.003070  -0.005135  -0.002124   0.005001  -0.003255  -0.003460
     2  Cl   0.000275  -0.000023   0.000057   0.000008   0.000011   0.000006
     3  Cl   0.002105   0.000082   0.000032  -0.000496  -0.000050  -0.000013
     4  Sn   0.007439  -0.001096   0.002956  -0.004636  -0.000612   0.000292
     5  Cl  -0.000181   0.000005  -0.000007   0.000265  -0.000035  -0.000025
     6  Cl   0.000055   0.000002  -0.000038   0.000049   0.000052  -0.000002
     7  Cl   0.000392   0.000134  -0.000296  -0.000327   0.005876  -0.000974
     8  P   -0.417130   0.030120   0.012984   0.048274   0.007304   0.015680
     9  O    0.012324  -0.000042  -0.000296  -0.003131   0.004685   0.002741
    10  O    0.167686   0.004512  -0.001978   0.041275  -0.004916  -0.006339
    11  O    0.018150  -0.000726   0.000090  -0.006324  -0.000020   0.000648
    12  C    0.005244  -0.000337   0.000091  -0.020034   0.003882   0.006353
    13  H    0.000854   0.000000   0.000000  -0.001112   0.000041   0.000123
    14  H   -0.002116   0.000021   0.000003   0.010417  -0.000351  -0.000612
    15  C    0.001490  -0.000002  -0.000002  -0.005626   0.001132   0.000187
    16  H    0.000001   0.000000   0.000000  -0.000006   0.000005   0.000006
    17  H    0.000025   0.000000   0.000000  -0.000095   0.000115   0.000008
    18  H    0.000016   0.000000   0.000000  -0.000024   0.000005   0.000002
    19  C    5.357028   0.350049   0.371142   0.158125   0.035497   0.028124
    20  H    0.350049   0.471674   0.012332   0.012091  -0.000871  -0.001330
    21  H    0.371142   0.012332   0.463961   0.006587  -0.002099  -0.000947
    22  C    0.158125   0.012091   0.006587   4.904628   0.356657   0.364955
    23  H    0.035497  -0.000871  -0.002099   0.356657   0.468367   0.014123
    24  H    0.028124  -0.001330  -0.000947   0.364955   0.014123   0.466587
    25  H    0.044870  -0.001677  -0.000791   0.353470   0.010480   0.011321
    26  C   -0.032798  -0.000848   0.000362   0.010486  -0.000401  -0.001679
    27  H   -0.002379   0.003693  -0.000211  -0.004768   0.000016  -0.000072
    28  H    0.003175  -0.000266   0.000008  -0.002166   0.000031   0.001330
    29  C    0.003459  -0.000252   0.000013   0.000189   0.000003   0.000048
    30  H   -0.000008  -0.000001   0.000000   0.000007   0.000000   0.000000
    31  H    0.000030  -0.000003   0.000000  -0.000003   0.000000   0.000000
    32  H    0.000000   0.000000   0.000000   0.000003   0.000000   0.000000
              25         26         27         28         29         30
     1  Pt  -0.000634  -0.070758  -0.007081  -0.003923   0.002958  -0.004879
     2  Cl  -0.000002  -0.000125  -0.000052   0.000000   0.000125   0.000053
     3  Cl   0.000020  -0.012492  -0.000994   0.000708  -0.000692   0.012298
     4  Sn   0.000258  -0.000528   0.000406  -0.001117   0.000539  -0.000139
     5  Cl   0.000003   0.000004   0.000001  -0.000002  -0.000027  -0.000002
     6  Cl  -0.000001   0.000006  -0.000003   0.000001   0.000001   0.000000
     7  Cl  -0.000430   0.000318   0.000127  -0.000053  -0.000081  -0.000005
     8  P    0.003815  -0.167389   0.048973   0.041058  -0.043440   0.001935
     9  O   -0.000186  -0.001967  -0.000025  -0.001446   0.000534  -0.000001
    10  O    0.000609   0.036967   0.008707  -0.002875  -0.003251   0.000042
    11  O   -0.000003   0.178998  -0.001641   0.010362   0.007415  -0.002479
    12  C   -0.000246  -0.017262   0.000138   0.002002   0.002039   0.000006
    13  H    0.000000   0.001308   0.000010   0.000149   0.000351  -0.000002
    14  H    0.000083   0.000079  -0.000012   0.000869  -0.000125   0.000000
    15  C   -0.000014   0.001339  -0.000009  -0.000040  -0.000047   0.000000
    16  H    0.000000  -0.000012   0.000000   0.000000   0.000000   0.000000
    17  H    0.000000  -0.000001   0.000000   0.000000   0.000000   0.000000
    18  H    0.000000  -0.000009   0.000000   0.000000   0.000001   0.000000
    19  C    0.044870  -0.032798  -0.002379   0.003175   0.003459  -0.000008
    20  H   -0.001677  -0.000848   0.003693  -0.000266  -0.000252  -0.000001
    21  H   -0.000791   0.000362  -0.000211   0.000008   0.000013   0.000000
    22  C    0.353470   0.010486  -0.004768  -0.002166   0.000189   0.000007
    23  H    0.010480  -0.000401   0.000016   0.000031   0.000003   0.000000
    24  H    0.011321  -0.001679  -0.000072   0.001330   0.000048   0.000000
    25  H    0.429439  -0.000007   0.000018   0.000001  -0.000002   0.000000
    26  C   -0.000007   5.034104   0.358848   0.355721   0.311529   0.027417
    27  H    0.000018   0.358848   0.489618   0.009165   0.010337  -0.001391
    28  H    0.000001   0.355721   0.009165   0.485847  -0.007757  -0.000854
    29  C   -0.000002   0.311529   0.010337  -0.007757   4.852876   0.373517
    30  H    0.000000   0.027417  -0.001391  -0.000854   0.373517   0.450203
    31  H    0.000000   0.038173  -0.002015  -0.000809   0.363895   0.010671
    32  H    0.000000   0.019391  -0.000871  -0.001073   0.386964   0.009273
              31         32
     1  Pt  -0.001154  -0.000743
     2  Cl  -0.000004  -0.000008
     3  Cl  -0.000088  -0.001276
     4  Sn  -0.000066   0.000292
     5  Cl   0.000000  -0.000001
     6  Cl   0.000000   0.000000
     7  Cl   0.000001   0.000007
     8  P    0.003687   0.008576
     9  O   -0.000001  -0.000007
    10  O   -0.000005   0.000004
    11  O    0.000240  -0.001482
    12  C    0.000010  -0.000041
    13  H    0.000002   0.000003
    14  H   -0.000001   0.000002
    15  C    0.000000   0.000001
    16  H    0.000000   0.000000
    17  H    0.000000   0.000000
    18  H    0.000000   0.000000
    19  C    0.000030   0.000000
    20  H   -0.000003   0.000000
    21  H    0.000000   0.000000
    22  C   -0.000003   0.000003
    23  H    0.000000   0.000000
    24  H    0.000000   0.000000
    25  H    0.000000   0.000000
    26  C    0.038173   0.019391
    27  H   -0.002015  -0.000871
    28  H   -0.000809  -0.001073
    29  C    0.363895   0.386964
    30  H    0.010671   0.009273
    31  H    0.427511   0.010977
    32  H    0.010977   0.434684
 Mulliken charges:
               1
     1  Pt   0.214622
     2  Cl  -0.550345
     3  Cl  -0.582467
     4  Sn   0.315015
     5  Cl  -0.261977
     6  Cl  -0.197088
     7  Cl  -0.262950
     8  P   -0.257582
     9  O   -0.136330
    10  O   -0.092380
    11  O   -0.077587
    12  C   -0.041572
    13  H    0.111368
    14  H    0.099627
    15  C   -0.227425
    16  H    0.148653
    17  H    0.119154
    18  H    0.107822
    19  C   -0.109874
    20  H    0.127893
    21  H    0.138168
    22  C   -0.223738
    23  H    0.104325
    24  H    0.102918
    25  H    0.149604
    26  C   -0.068775
    27  H    0.091469
    28  H    0.111951
    29  C   -0.261119
    30  H    0.124338
    31  H    0.148955
    32  H    0.135327
 Sum of Mulliken charges =  -1.00000
 Mulliken charges with hydrogens summed into heavy atoms:
               1
     1  Pt   0.214622
     2  Cl  -0.550345
     3  Cl  -0.582467
     4  Sn   0.315015
     5  Cl  -0.261977
     6  Cl  -0.197088
     7  Cl  -0.262950
     8  P   -0.257582
     9  O   -0.136330
    10  O   -0.092380
    11  O   -0.077587
    12  C    0.169423
    15  C    0.148204
    19  C    0.156187
    22  C    0.133109
    26  C    0.134644
    29  C    0.147501
 Electronic spatial extent (au):  <R**2>=           9876.2655
 Charge=             -1.0000 electrons
 Dipole moment (field-independent basis, Debye):
    X=             14.3057    Y=             12.7634    Z=             -0.4351  Tot=             19.1767
 Quadrupole moment (field-independent basis, Debye-Ang):
   XX=           -212.4584   YY=           -233.5006   ZZ=           -192.9167
   XY=             22.0261   XZ=             -2.4291   YZ=              0.0516
 Traceless Quadrupole moment (field-independent basis, Debye-Ang):
   XX=              0.5002   YY=            -20.5420   ZZ=             20.0419
   XY=             22.0261   XZ=             -2.4291   YZ=              0.0516
 Octapole moment (field-independent basis, Debye-Ang**2):
  XXX=            165.6807  YYY=             42.6528  ZZZ=            -25.3987  XYY=             20.5332
  XXY=             20.1963  XXZ=             -3.6692  XZZ=             27.3510  YZZ=            -16.5360
  YYZ=              6.1602  XYZ=             -7.1484
 Hexadecapole moment (field-independent basis, Debye-Ang**3):
 XXXX=          -6737.6257 YYYY=          -4523.6835 ZZZZ=          -1684.9343 XXXY=             93.7133
 XXXZ=            -46.8570 YYYX=            105.6444 YYYZ=             30.0886 ZZZX=            -15.0078
 ZZZY=            -26.8849 XXYY=          -1944.1476 XXZZ=          -1434.0261 YYZZ=           -949.4193
 XXYZ=            -36.8822 YYXZ=            -14.5137 ZZXY=             75.0751
 N-N= 5.966111610072D+03 E-N=-7.398528462046D+04  KE= 2.579420594378D+04
 Calculating spin-rotation constants.
 Leave Link  601 at Tue Feb  4 08:34:45 2020, MaxMem=  4026531840 cpu:       240.7
 (Enter /scr/programs/g09/l9999.exe)
 1\1\GINC-NEQC27\SP\RPBEPBE\Gen\C6H15Cl5O3P1Pt1Sn1(1-)\GUEST\04-Feb-202
 0\0\\#PBEPBE/gen scf=(maxcycle=500,conver=4) NMR=GIAO Scrf=(solvent=Di
 chloromethane)\\estrutura 27\\-1,1\Pt,0,-0.127036,1.232463,-0.014862\C
 l,0,1.580196,2.959924,0.090693\Cl,0,-1.903277,2.897242,-0.065548\Sn,0,
 1.87805,-0.412102,-0.042251\Cl,0,2.61266,-1.23687,2.12622\Cl,0,4.03210
 4,0.256029,-0.909826\Cl,0,1.744731,-2.508915,-1.277786\P,0,-1.654202,-
 0.389691,-0.084199\O,0,-1.115383,-1.811179,0.487479\O,0,-2.131629,-0.6
 17171,-1.597812\O,0,-2.97686,-0.099689,0.797675\C,0,-1.712592,-2.61034
 7,1.534925\H,0,-2.209852,-1.945253,2.256322\H,0,-2.482163,-3.25629,1.0
 81813\C,0,-0.627843,-3.431066,2.199477\H,0,-1.075733,-4.081919,2.96686
 \H,0,-0.105623,-4.064091,1.466158\H,0,0.11664,-2.778391,2.677301\C,0,-
 2.602638,-1.67243,-2.466716\H,0,-3.636012,-1.408185,-2.74184\H,0,-1.98
 4004,-1.589058,-3.372796\C,0,-2.537759,-3.082976,-1.915513\H,0,-1.5134
 82,-3.354374,-1.627205\H,0,-3.205925,-3.224235,-1.052453\H,0,-2.870453
 ,-3.770671,-2.708782\C,0,-4.351616,-0.279779,0.394978\H,0,-4.422981,-0
 .188169,-0.699402\H,0,-4.662193,-1.300763,0.677336\C,0,-5.20234,0.7697
 23,1.081563\H,0,-4.861083,1.777809,0.800872\H,0,-6.255297,0.648412,0.7
 79281\H,0,-5.141836,0.673174,2.176479\\Version=EM64L-G09RevD.01\State=
 1-A\HF=-26195.4898533\RMSD=4.468e-05\Dipole=-5.6282816,-5.0215121,-0.1
 711915\Quadrupole=0.3718627,-15.2725129,14.9006502,16.3758526,1.805998
 9,-0.0383638\PG=C01 [X(C6H15Cl5O3P1Pt1Sn1)]\\@


 YOU CAN WIPE THE SLATE CLEAN, BUT YOU'LL STILL
 HAVE TO EAT A LITTLE CHALK DUST.
 Job cpu time:       0 days  6 hours 42 minutes  8.9 seconds.
 File lengths (MBytes):  RWF=    521 Int=      0 D2E=      0 Chk=     38 Scr=      1
 Normal termination of Gaussian 09 at Tue Feb  4 08:34:45 2020.
