 Entering Gaussian System, Link 0=g09
 Input=estrutura46.com
 Output=estrutura46.log
 Initial command:
 /home/scr/programs/g09/l1.exe /home/scr/guest1/Gau-25515.inp -scrdir=/home/scr/guest1/
 Entering Link 1 = /home/scr/programs/g09/l1.exe PID=     25516.
  
 Copyright (c) 1988,1990,1992,1993,1995,1998,2003,2009, Gaussian, Inc.
                  All Rights Reserved.
  
 This is part of the Gaussian(R) 09 program.  It is based on
 the Gaussian(R) 03 system (copyright 2003, Gaussian, Inc.),
 the Gaussian(R) 98 system (copyright 1998, Gaussian, Inc.),
 the Gaussian(R) 94 system (copyright 1995, Gaussian, Inc.),
 the Gaussian 92(TM) system (copyright 1992, Gaussian, Inc.),
 the Gaussian 90(TM) system (copyright 1990, Gaussian, Inc.),
 the Gaussian 88(TM) system (copyright 1988, Gaussian, Inc.),
 the Gaussian 86(TM) system (copyright 1986, Carnegie Mellon
 University), and the Gaussian 82(TM) system (copyright 1983,
 Carnegie Mellon University). Gaussian is a federally registered
 trademark of Gaussian, Inc.
  
 This software contains proprietary and confidential information,
 including trade secrets, belonging to Gaussian, Inc.
  
 This software is provided under written license and may be
 used, copied, transmitted, or stored only in accord with that
 written license.
  
 The following legend is applicable only to US Government
 contracts under FAR:
  
                    RESTRICTED RIGHTS LEGEND
  
 Use, reproduction and disclosure by the US Government is
 subject to restrictions as set forth in subparagraphs (a)
 and (c) of the Commercial Computer Software - Restricted
 Rights clause in FAR 52.227-19.
  
 Gaussian, Inc.
 340 Quinnipiac St., Bldg. 40, Wallingford CT 06492
  
  
 ---------------------------------------------------------------
 Warning -- This program may not be used in any manner that
 competes with the business of Gaussian, Inc. or will provide
 assistance to any competitor of Gaussian, Inc.  The licensee
 of this program is prohibited from giving any competitor of
 Gaussian, Inc. access to this program.  By using this program,
 the user acknowledges that Gaussian, Inc. is engaged in the
 business of creating and licensing software in the field of
 computational chemistry and represents and warrants to the
 licensee that it is not a competitor of Gaussian, Inc. and that
 it will not use this program in any manner prohibited above.
 ---------------------------------------------------------------
  

 Cite this work as:
 Gaussian 09, Revision A.02,
 M. J. Frisch, G. W. Trucks, H. B. Schlegel, G. E. Scuseria, 
 M. A. Robb, J. R. Cheeseman, G. Scalmani, V. Barone, B. Mennucci, 
 G. A. Petersson, H. Nakatsuji, M. Caricato, X. Li, H. P. Hratchian, 
 A. F. Izmaylov, J. Bloino, G. Zheng, J. L. Sonnenberg, M. Hada, 
 M. Ehara, K. Toyota, R. Fukuda, J. Hasegawa, M. Ishida, T. Nakajima, 
 Y. Honda, O. Kitao, H. Nakai, T. Vreven, J. A. Montgomery, Jr., 
 J. E. Peralta, F. Ogliaro, M. Bearpark, J. J. Heyd, E. Brothers, 
 K. N. Kudin, V. N. Staroverov, R. Kobayashi, J. Normand, 
 K. Raghavachari, A. Rendell, J. C. Burant, S. S. Iyengar, J. Tomasi, 
 M. Cossi, N. Rega, J. M. Millam, M. Klene, J. E. Knox, J. B. Cross, 
 V. Bakken, C. Adamo, J. Jaramillo, R. Gomperts, R. E. Stratmann, 
 O. Yazyev, A. J. Austin, R. Cammi, C. Pomelli, J. W. Ochterski, 
 R. L. Martin, K. Morokuma, V. G. Zakrzewski, G. A. Voth, 
 P. Salvador, J. J. Dannenberg, S. Dapprich, A. D. Daniels, 
 O. Farkas, J. B. Foresman, J. V. Ortiz, J. Cioslowski, 
 and D. J. Fox, Gaussian, Inc., Wallingford CT, 2009.
 
 ******************************************
 Gaussian 09:  EM64L-G09RevA.02 11-Jun-2009
                15-Jun-2019 
 ******************************************
 %mem=100Gb
 %nproc=32
 Will use up to   32 processors via shared memory.
 ----------------------------------------------------------------------
 #PBEPBE/gen scf=(maxcycle=500,conver=4) NMR=GIAO Scrf=(solvent=Dichlor
 omethane)
 ----------------------------------------------------------------------
 1/38=1/1;
 2/12=2,17=6,18=5,40=1/2;
 3/5=7,11=2,16=1,25=1,30=1,70=2201,72=9,74=1009/1,2,8,3;
 4//1;
 5/5=2,6=4,7=500,38=5,53=9/2;
 8/6=1,10=90,11=11/1;
 10/13=100,45=16/2;
 6/7=2,8=2,9=2,10=2,28=1/1;
 99/9=1/99;
 Leave Link    1 at Sat Jun 15 03:07:03 2019, MaxMem=13421772800 cpu:       2.8
 (Enter /home/scr/programs/g09/l101.exe)
 ------------
 estrutura 46
 ------------
 Symbolic Z-matrix:
 Charge =  0 Multiplicity = 1
 Pt                    1.79295  -0.31217  -0.34764 
 Cl                    0.25641   1.57751  -0.9711 
 Cl                   -0.26289  -1.69255  -0.70373 
 Sn                    2.99645  -2.52823   0.19557 
 Cl                    2.63518  -4.20078  -1.49011 
 Cl                    2.23108  -3.63458   2.18443 
 Cl                    5.37575  -2.70642   0.45277 
 Pt                   -1.81003   0.2714   -0.39865 
 Sn                   -2.91687   2.54094   0.14162 
 Cl                   -2.65856   4.19843  -1.57784 
 Cl                   -1.92061   3.61106   2.04635 
 Cl                   -5.2467    2.82179   0.65152 
 P                     3.683     0.94744  -0.05983 
 P                    -3.70954  -0.94478  -0.01368 
 C                     4.39457   0.68119   1.61111 
 C                     5.77283   0.64713   1.88039 
 C                     3.49555   0.54491   2.684 
 C                     6.2324    0.50237   3.18894 
 H                     6.49991   0.71366   1.07217 
 C                     3.96619   0.40808   3.99149 
 H                     2.41792   0.53525   2.49913 
 C                     5.34197   0.39144   4.27098 
 H                     7.31029   0.46976   3.37212 
 H                     3.24693   0.30599   4.80851 
 C                     4.91944   0.64004  -1.3805 
 C                     6.13253   1.35474  -1.43073 
 C                     4.62059  -0.24316  -2.43223 
 C                     7.03048   1.15126  -2.47873 
 H                     6.38169   2.09578  -0.66682 
 C                     5.51452  -0.42132  -3.49069 
 H                     3.67178  -0.78179  -2.44005 
 C                     6.74065   0.26237  -3.52998 
 H                     7.97124   1.70874  -2.48907 
 H                     5.24541  -1.1023   -4.30386 
 C                     3.36886   2.7515   -0.18103 
 C                     3.21195   3.33081  -1.4535 
 C                     3.25917   3.57049   0.95316 
 C                     2.96391   4.69568  -1.58111 
 H                     3.28599   2.71597  -2.35322 
 C                     3.00917   4.93768   0.8132 
 H                     3.3742    3.15142   1.95388 
 C                     2.86107   5.52725  -0.45187 
 H                     2.84628   5.1251   -2.57975 
 H                     2.93066   5.55821   1.71001 
 C                    -4.2587   -0.7693    1.72348 
 C                    -5.56227  -0.41997   2.10299 
 C                    -3.29267  -0.97558   2.72831 
 C                    -5.89368  -0.29983   3.4555 
 H                    -6.32546  -0.2166    1.35108 
 C                    -3.63676  -0.86216   4.07391 
 H                    -2.26174  -1.21903   2.45861 
 C                    -4.94569  -0.52549   4.46485 
 H                    -6.91383  -0.01536   3.72828 
 H                    -2.87145  -1.02992   4.83603 
 C                    -3.45305  -2.74072  -0.29784 
 C                    -3.10826  -3.1638   -1.59392 
 C                    -3.61649  -3.7049    0.70831 
 C                    -2.92536  -4.51697  -1.86996 
 H                    -2.97316  -2.43437  -2.39524 
 C                    -3.43428  -5.05903   0.41936 
 H                    -3.89033  -3.40885   1.72222 
 C                    -3.08481  -5.49144  -0.8704 
 H                    -2.6489   -4.82293  -2.88276 
 H                    -3.56727  -5.79383   1.21765 
 C                    -5.07615  -0.54958  -1.17168 
 C                    -6.30711  -1.23004  -1.0735 
 C                    -4.88503   0.33885  -2.23976 
 C                    -7.32276  -0.9855   -1.99669 
 H                    -6.47829  -1.9634   -0.28075 
 C                    -5.90408   0.56438  -3.16848 
 H                    -3.92886   0.84856  -2.36757 
 C                    -7.14397  -0.08434  -3.06068 
 H                    -8.2731   -1.51857  -1.89516 
 H                    -5.72375   1.25623  -3.99776 
 C                     7.71718   0.05348  -4.65862 
 H                     8.31002   0.96149  -4.848 
 H                     8.42703  -0.75668  -4.4153 
 H                     7.20433  -0.22982  -5.59071 
 C                     5.85678   0.26308   5.68159 
 H                     6.64561  -0.5023    5.75072 
 H                     6.30147   1.21356   6.02294 
 H                     5.05406  -0.00259   6.38396 
 C                    -5.3147   -0.42344   5.9231 
 H                    -6.24455   0.14766   6.06426 
 H                    -5.47253  -1.42754   6.35784 
 H                    -4.51509   0.05841   6.5076 
 C                    -8.25225   0.18707  -4.04489 
 H                    -8.84719  -0.71729  -4.23839 
 H                    -8.9434    0.95335  -3.65326 
 H                    -7.8598    0.55982  -5.00187 
 C                    -2.90615  -6.95656  -1.17442 
 H                    -3.88446  -7.44948  -1.31154 
 H                    -2.32569  -7.10882  -2.09552 
 H                    -2.39462  -7.47864  -0.34974 
 C                     2.62718   7.00847  -0.60096 
 H                     3.58234   7.53903  -0.75785 
 H                     1.9885    7.22974  -1.4693 
 H                     2.15769   7.43631   0.2964 
 
 NAtoms=     98 NQM=     98 NQMF=      0 NMic=      0 NMicF=      0 NTot=     98.
                    Isotopes and Nuclear Properties:
 (Nuclear quadrupole moments (NQMom) in fm**2, nuclear magnetic moments (NMagM)
  in nuclear magnetons)

  Atom         1           2           3           4           5           6           7           8           9          10
 IAtWgt=         195          35          35         118          35          35          35         195         118          35
 AtmWgt= 194.9648000  34.9688527  34.9688527 117.9018000  34.9688527  34.9688527  34.9688527 194.9648000 117.9018000  34.9688527
 NucSpn=           1           3           3           0           3           3           3           1           0           3
 AtZEff=   0.0000000   0.0000000   0.0000000   0.0000000   0.0000000   0.0000000   0.0000000   0.0000000   0.0000000   0.0000000
 NQMom=    0.0000000  -8.1650000  -8.1650000   0.0000000  -8.1650000  -8.1650000  -8.1650000   0.0000000   0.0000000  -8.1650000
 NMagM=    0.6095000   0.8218740   0.8218740   0.0000000   0.8218740   0.8218740   0.8218740   0.6095000   0.0000000   0.8218740

  Atom        11          12          13          14          15          16          17          18          19          20
 IAtWgt=          35          35          31          31          12          12          12          12           1          12
 AtmWgt=  34.9688527  34.9688527  30.9737634  30.9737634  12.0000000  12.0000000  12.0000000  12.0000000   1.0078250  12.0000000
 NucSpn=           3           3           1           1           0           0           0           0           1           0
 AtZEff=   0.0000000   0.0000000   0.0000000   0.0000000   0.0000000   0.0000000   0.0000000   0.0000000   0.0000000   0.0000000
 NQMom=   -8.1650000  -8.1650000   0.0000000   0.0000000   0.0000000   0.0000000   0.0000000   0.0000000   0.0000000   0.0000000
 NMagM=    0.8218740   0.8218740   1.1316000   1.1316000   0.0000000   0.0000000   0.0000000   0.0000000   2.7928460   0.0000000

  Atom        21          22          23          24          25          26          27          28          29          30
 IAtWgt=           1          12           1           1          12          12          12          12           1          12
 AtmWgt=   1.0078250  12.0000000   1.0078250   1.0078250  12.0000000  12.0000000  12.0000000  12.0000000   1.0078250  12.0000000
 NucSpn=           1           0           1           1           0           0           0           0           1           0
 AtZEff=   0.0000000   0.0000000   0.0000000   0.0000000   0.0000000   0.0000000   0.0000000   0.0000000   0.0000000   0.0000000
 NQMom=    0.0000000   0.0000000   0.0000000   0.0000000   0.0000000   0.0000000   0.0000000   0.0000000   0.0000000   0.0000000
 NMagM=    2.7928460   0.0000000   2.7928460   2.7928460   0.0000000   0.0000000   0.0000000   0.0000000   2.7928460   0.0000000

  Atom        31          32          33          34          35          36          37          38          39          40
 IAtWgt=           1          12           1           1          12          12          12          12           1          12
 AtmWgt=   1.0078250  12.0000000   1.0078250   1.0078250  12.0000000  12.0000000  12.0000000  12.0000000   1.0078250  12.0000000
 NucSpn=           1           0           1           1           0           0           0           0           1           0
 AtZEff=   0.0000000   0.0000000   0.0000000   0.0000000   0.0000000   0.0000000   0.0000000   0.0000000   0.0000000   0.0000000
 NQMom=    0.0000000   0.0000000   0.0000000   0.0000000   0.0000000   0.0000000   0.0000000   0.0000000   0.0000000   0.0000000
 NMagM=    2.7928460   0.0000000   2.7928460   2.7928460   0.0000000   0.0000000   0.0000000   0.0000000   2.7928460   0.0000000

  Atom        41          42          43          44          45          46          47          48          49          50
 IAtWgt=           1          12           1           1          12          12          12          12           1          12
 AtmWgt=   1.0078250  12.0000000   1.0078250   1.0078250  12.0000000  12.0000000  12.0000000  12.0000000   1.0078250  12.0000000
 NucSpn=           1           0           1           1           0           0           0           0           1           0
 AtZEff=   0.0000000   0.0000000   0.0000000   0.0000000   0.0000000   0.0000000   0.0000000   0.0000000   0.0000000   0.0000000
 NQMom=    0.0000000   0.0000000   0.0000000   0.0000000   0.0000000   0.0000000   0.0000000   0.0000000   0.0000000   0.0000000
 NMagM=    2.7928460   0.0000000   2.7928460   2.7928460   0.0000000   0.0000000   0.0000000   0.0000000   2.7928460   0.0000000

  Atom        51          52          53          54          55          56          57          58          59          60
 IAtWgt=           1          12           1           1          12          12          12          12           1          12
 AtmWgt=   1.0078250  12.0000000   1.0078250   1.0078250  12.0000000  12.0000000  12.0000000  12.0000000   1.0078250  12.0000000
 NucSpn=           1           0           1           1           0           0           0           0           1           0
 AtZEff=   0.0000000   0.0000000   0.0000000   0.0000000   0.0000000   0.0000000   0.0000000   0.0000000   0.0000000   0.0000000
 NQMom=    0.0000000   0.0000000   0.0000000   0.0000000   0.0000000   0.0000000   0.0000000   0.0000000   0.0000000   0.0000000
 NMagM=    2.7928460   0.0000000   2.7928460   2.7928460   0.0000000   0.0000000   0.0000000   0.0000000   2.7928460   0.0000000

  Atom        61          62          63          64          65          66          67          68          69          70
 IAtWgt=           1          12           1           1          12          12          12          12           1          12
 AtmWgt=   1.0078250  12.0000000   1.0078250   1.0078250  12.0000000  12.0000000  12.0000000  12.0000000   1.0078250  12.0000000
 NucSpn=           1           0           1           1           0           0           0           0           1           0
 AtZEff=   0.0000000   0.0000000   0.0000000   0.0000000   0.0000000   0.0000000   0.0000000   0.0000000   0.0000000   0.0000000
 NQMom=    0.0000000   0.0000000   0.0000000   0.0000000   0.0000000   0.0000000   0.0000000   0.0000000   0.0000000   0.0000000
 NMagM=    2.7928460   0.0000000   2.7928460   2.7928460   0.0000000   0.0000000   0.0000000   0.0000000   2.7928460   0.0000000

  Atom        71          72          73          74          75          76          77          78          79          80
 IAtWgt=           1          12           1           1          12           1           1           1          12           1
 AtmWgt=   1.0078250  12.0000000   1.0078250   1.0078250  12.0000000   1.0078250   1.0078250   1.0078250  12.0000000   1.0078250
 NucSpn=           1           0           1           1           0           1           1           1           0           1
 AtZEff=   0.0000000   0.0000000   0.0000000   0.0000000   0.0000000   0.0000000   0.0000000   0.0000000   0.0000000   0.0000000
 NQMom=    0.0000000   0.0000000   0.0000000   0.0000000   0.0000000   0.0000000   0.0000000   0.0000000   0.0000000   0.0000000
 NMagM=    2.7928460   0.0000000   2.7928460   2.7928460   0.0000000   2.7928460   2.7928460   2.7928460   0.0000000   2.7928460

  Atom        81          82          83          84          85          86          87          88          89          90
 IAtWgt=           1           1          12           1           1           1          12           1           1           1
 AtmWgt=   1.0078250   1.0078250  12.0000000   1.0078250   1.0078250   1.0078250  12.0000000   1.0078250   1.0078250   1.0078250
 NucSpn=           1           1           0           1           1           1           0           1           1           1
 AtZEff=   0.0000000   0.0000000   0.0000000   0.0000000   0.0000000   0.0000000   0.0000000   0.0000000   0.0000000   0.0000000
 NQMom=    0.0000000   0.0000000   0.0000000   0.0000000   0.0000000   0.0000000   0.0000000   0.0000000   0.0000000   0.0000000
 NMagM=    2.7928460   2.7928460   0.0000000   2.7928460   2.7928460   2.7928460   0.0000000   2.7928460   2.7928460   2.7928460

  Atom        91          92          93          94          95          96          97          98
 IAtWgt=          12           1           1           1          12           1           1           1
 AtmWgt=  12.0000000   1.0078250   1.0078250   1.0078250  12.0000000   1.0078250   1.0078250   1.0078250
 NucSpn=           0           1           1           1           0           1           1           1
 AtZEff=   0.0000000   0.0000000   0.0000000   0.0000000   0.0000000   0.0000000   0.0000000   0.0000000
 NQMom=    0.0000000   0.0000000   0.0000000   0.0000000   0.0000000   0.0000000   0.0000000   0.0000000
 NMagM=    0.0000000   2.7928460   2.7928460   2.7928460   0.0000000   2.7928460   2.7928460   2.7928460
 Leave Link  101 at Sat Jun 15 03:07:03 2019, MaxMem=13421772800 cpu:       3.3
 (Enter /home/scr/programs/g09/l202.exe)
 Stoichiometry    C42H42Cl8P2Pt2Sn2
 Framework group  C1[X(C42H42Cl8P2Pt2Sn2)]
 Deg. of freedom   288
 Full point group                 C1      NOp   1
 Largest Abelian subgroup         C1      NOp   1
 Largest concise Abelian subgroup C1      NOp   1
                         Standard orientation:                         
 ---------------------------------------------------------------------
 Center     Atomic      Atomic             Coordinates (Angstroms)
 Number     Number       Type             X           Y           Z
 ---------------------------------------------------------------------
      1         78           0        1.792951   -0.312169   -0.347641
      2         17           0        0.256411    1.577508   -0.971096
      3         17           0       -0.262889   -1.692548   -0.703731
      4         50           0        2.996454   -2.528228    0.195569
      5         17           0        2.635180   -4.200785   -1.490106
      6         17           0        2.231081   -3.634577    2.184433
      7         17           0        5.375753   -2.706419    0.452772
      8         78           0       -1.810026    0.271395   -0.398654
      9         50           0       -2.916867    2.540938    0.141621
     10         17           0       -2.658558    4.198434   -1.577842
     11         17           0       -1.920611    3.611065    2.046352
     12         17           0       -5.246700    2.821794    0.651521
     13         15           0        3.683001    0.947438   -0.059826
     14         15           0       -3.709540   -0.944780   -0.013681
     15          6           0        4.394574    0.681185    1.611111
     16          6           0        5.772826    0.647130    1.880389
     17          6           0        3.495545    0.544908    2.684001
     18          6           0        6.232402    0.502366    3.188945
     19          1           0        6.499908    0.713658    1.072172
     20          6           0        3.966189    0.408083    3.991485
     21          1           0        2.417919    0.535254    2.499128
     22          6           0        5.341965    0.391435    4.270977
     23          1           0        7.310295    0.469757    3.372122
     24          1           0        3.246925    0.305992    4.808510
     25          6           0        4.919435    0.640043   -1.380502
     26          6           0        6.132527    1.354743   -1.430728
     27          6           0        4.620595   -0.243158   -2.432225
     28          6           0        7.030480    1.151259   -2.478725
     29          1           0        6.381694    2.095780   -0.666823
     30          6           0        5.514519   -0.421316   -3.490688
     31          1           0        3.671781   -0.781790   -2.440050
     32          6           0        6.740648    0.262370   -3.529976
     33          1           0        7.971235    1.708737   -2.489072
     34          1           0        5.245407   -1.102301   -4.303863
     35          6           0        3.368860    2.751499   -0.181030
     36          6           0        3.211945    3.330810   -1.453496
     37          6           0        3.259168    3.570493    0.953155
     38          6           0        2.963905    4.695681   -1.581109
     39          1           0        3.285986    2.715969   -2.353218
     40          6           0        3.009170    4.937683    0.813204
     41          1           0        3.374199    3.151420    1.953881
     42          6           0        2.861070    5.527252   -0.451870
     43          1           0        2.846278    5.125097   -2.579752
     44          1           0        2.930655    5.558212    1.710005
     45          6           0       -4.258697   -0.769300    1.723482
     46          6           0       -5.562274   -0.419967    2.102988
     47          6           0       -3.292673   -0.975575    2.728309
     48          6           0       -5.893681   -0.299831    3.455504
     49          1           0       -6.325460   -0.216600    1.351076
     50          6           0       -3.636764   -0.862158    4.073911
     51          1           0       -2.261741   -1.219028    2.458615
     52          6           0       -4.945690   -0.525487    4.464851
     53          1           0       -6.913829   -0.015361    3.728280
     54          1           0       -2.871445   -1.029919    4.836032
     55          6           0       -3.453047   -2.740718   -0.297838
     56          6           0       -3.108257   -3.163800   -1.593922
     57          6           0       -3.616493   -3.704898    0.708305
     58          6           0       -2.925364   -4.516969   -1.869957
     59          1           0       -2.973160   -2.434369   -2.395243
     60          6           0       -3.434277   -5.059029    0.419361
     61          1           0       -3.890325   -3.408846    1.722218
     62          6           0       -3.084815   -5.491435   -0.870403
     63          1           0       -2.648901   -4.822929   -2.882760
     64          1           0       -3.567273   -5.793829    1.217647
     65          6           0       -5.076148   -0.549575   -1.171675
     66          6           0       -6.307107   -1.230040   -1.073499
     67          6           0       -4.885028    0.338851   -2.239760
     68          6           0       -7.322762   -0.985497   -1.996692
     69          1           0       -6.478292   -1.963399   -0.280748
     70          6           0       -5.904076    0.564383   -3.168482
     71          1           0       -3.928860    0.848564   -2.367572
     72          6           0       -7.143968   -0.084342   -3.060677
     73          1           0       -8.273100   -1.518565   -1.895163
     74          1           0       -5.723746    1.256229   -3.997763
     75          6           0        7.717176    0.053475   -4.658623
     76          1           0        8.310020    0.961493   -4.847995
     77          1           0        8.427027   -0.756679   -4.415301
     78          1           0        7.204327   -0.229818   -5.590714
     79          6           0        5.856778    0.263078    5.681589
     80          1           0        6.645610   -0.502296    5.750715
     81          1           0        6.301474    1.213564    6.022936
     82          1           0        5.054059   -0.002594    6.383955
     83          6           0       -5.314699   -0.423444    5.923102
     84          1           0       -6.244548    0.147658    6.064256
     85          1           0       -5.472529   -1.427537    6.357841
     86          1           0       -4.515093    0.058410    6.507595
     87          6           0       -8.252255    0.187072   -4.044888
     88          1           0       -8.847187   -0.717294   -4.238395
     89          1           0       -8.943404    0.953348   -3.653257
     90          1           0       -7.859796    0.559817   -5.001869
     91          6           0       -2.906153   -6.956558   -1.174423
     92          1           0       -3.884458   -7.449478   -1.311543
     93          1           0       -2.325687   -7.108818   -2.095522
     94          1           0       -2.394616   -7.478644   -0.349739
     95          6           0        2.627177    7.008472   -0.600962
     96          1           0        3.582343    7.539028   -0.757848
     97          1           0        1.988496    7.229740   -1.469300
     98          1           0        2.157686    7.436313    0.296401
 ---------------------------------------------------------------------
 Rotational constants (GHZ):      0.0366659      0.0196412      0.0170431
 Leave Link  202 at Sat Jun 15 03:07:03 2019, MaxMem=13421772800 cpu:       1.7
 (Enter /home/scr/programs/g09/l301.exe)
 General basis read from cards:  (5D, 7F)
 Centers:  19 21 23 24 29 31 33 34 39 41 43 44 49 51 53 54 59 61 63 64
 Centers:  69 71 73 74 76 77 78 80 81 82 84 85 86 88 89 90 92 93 94 96
 Centers:  97 98
 S 5 1.00
     Exponent=  2.8295215633D+02 Coefficients=  4.3000000000D-04
     Exponent=  8.7062201949D+01 Coefficients=  5.1000000000D-04
     Exponent=  2.6788369830D+01 Coefficients=  6.1600000000D-03
     Exponent=  8.2425753324D+00 Coefficients=  1.3030000000D-02
     Exponent=  2.5361770254D+00 Coefficients=  9.9490000000D-02
 S 1 1.00
     Exponent=  7.8036216165D-01 Coefficients=  1.0000000000D+00
 S 1 1.00
     Exponent=  2.4011143435D-01 Coefficients=  1.0000000000D+00
 P 1 1.00
     Exponent=  8.8150000000D-01 Coefficients=  1.0000000000D+00
 P 1 1.00
     Exponent=  1.7989200000D-01 Coefficients=  1.0000000000D+00
 ****
 Centers:  15 16 17 18 20 22 25 26 27 28 30 32 35 36 37 38 40 42 45 46
 Centers:  47 48 50 52 55 56 57 58 60 62 65 66 67 68 70 72 75 79 83 87
 Centers:  91 95
 S 6 1.00
     Exponent=  8.8461235339D+03 Coefficients=  5.3000000000D-04
     Exponent=  2.9487078446D+03 Coefficients=  7.7000000000D-04
     Exponent=  9.8290261488D+02 Coefficients=  4.0500000000D-03
     Exponent=  3.2763420496D+02 Coefficients=  1.4030000000D-02
     Exponent=  1.0921140165D+02 Coefficients=  5.3450000000D-02
     Exponent=  3.6403800551D+01 Coefficients=  1.7027000000D-01
 S 1 1.00
     Exponent=  1.2134600184D+01 Coefficients=  1.0000000000D+00
 S 1 1.00
     Exponent=  4.0448667279D+00 Coefficients=  1.0000000000D+00
 S 1 1.00
     Exponent=  1.3482889093D+00 Coefficients=  1.0000000000D+00
 S 1 1.00
     Exponent=  4.4942963643D-01 Coefficients=  1.0000000000D+00
 S 1 1.00
     Exponent=  1.4980987881D-01 Coefficients=  1.0000000000D+00
 P 4 1.00
     Exponent=  3.7294093393D+01 Coefficients=  3.9600000000D-03
     Exponent=  1.1475105659D+01 Coefficients=  1.8890000000D-02
     Exponent=  3.5308017414D+00 Coefficients=  9.4610000000D-02
     Exponent=  1.0864005358D+00 Coefficients=  3.1889000000D-01
 P 1 1.00
     Exponent=  3.3427708794D-01 Coefficients=  1.0000000000D+00
 P 1 1.00
     Exponent=  1.0285448860D-01 Coefficients=  1.0000000000D+00
 D 1 1.00
     Exponent=  4.7750000000D-01 Coefficients=  1.0000000000D+00
 D 1 1.00
     Exponent=  1.1998000000D-01 Coefficients=  1.0000000000D+00
 ****
 Centers:  13 14
 S 7 1.00
     Exponent=  5.9538004301D+04 Coefficients=  9.5000000000D-04
     Exponent=  2.1650183382D+04 Coefficients=  6.1000000000D-04
     Exponent=  7.8727939572D+03 Coefficients=  3.7500000000D-03
     Exponent=  2.8628341663D+03 Coefficients=  9.6300000000D-03
     Exponent=  1.0410306059D+03 Coefficients=  3.2430000000D-02
     Exponent=  3.7855658397D+02 Coefficients=  9.9500000000D-02
     Exponent=  1.3765693962D+02 Coefficients=  2.6570000000D-01
 S 1 1.00
     Exponent=  5.0057068954D+01 Coefficients=  1.0000000000D+00
 S 1 1.00
     Exponent=  1.8202570529D+01 Coefficients=  1.0000000000D+00
 S 1 1.00
     Exponent=  6.6191165560D+00 Coefficients=  1.0000000000D+00
 S 1 1.00
     Exponent=  2.4069514749D+00 Coefficients=  1.0000000000D+00
 S 1 1.00
     Exponent=  8.7525508178D-01 Coefficients=  1.0000000000D+00
 S 1 1.00
     Exponent=  3.1827457519D-01 Coefficients=  1.0000000000D+00
 S 1 1.00
     Exponent=  1.1573620916D-01 Coefficients=  1.0000000000D+00
 S 1 1.00
     Exponent=  4.2085894240D-02 Coefficients=  1.0000000000D+00
 P 5 1.00
     Exponent=  4.8799672315D+02 Coefficients=  2.1600000000D-03
     Exponent=  1.6266557438D+02 Coefficients=  9.7900000000D-03
     Exponent=  5.4221858128D+01 Coefficients=  5.4850000000D-02
     Exponent=  1.8073952709D+01 Coefficients=  2.1770000000D-01
     Exponent=  6.0246509031D+00 Coefficients=  4.8978000000D-01
 P 1 1.00
     Exponent=  2.0082169677D+00 Coefficients=  1.0000000000D+00
 P 1 1.00
     Exponent=  6.6940565590D-01 Coefficients=  1.0000000000D+00
 P 1 1.00
     Exponent=  2.2313521863D-01 Coefficients=  1.0000000000D+00
 P 1 1.00
     Exponent=  7.4378406211D-02 Coefficients=  1.0000000000D+00
 P 1 1.00
     Exponent=  2.4792802070D-02 Coefficients=  1.0000000000D+00
 D 1 1.00
     Exponent=  3.5395000000D-01 Coefficients=  1.0000000000D+00
 D 1 1.00
     Exponent=  8.9098000000D-02 Coefficients=  1.0000000000D+00
 ****
 Centers:   2  3  5  6  7 10 11 12
 S 7 1.00
     Exponent=  7.7142817164D+04 Coefficients=  1.0600000000D-03
     Exponent=  2.8051933514D+04 Coefficients=  6.4000000000D-04
     Exponent=  1.0200703096D+04 Coefficients=  3.9600000000D-03
     Exponent=  3.7093465804D+03 Coefficients=  9.8300000000D-03
     Exponent=  1.3488533020D+03 Coefficients=  3.2690000000D-02
     Exponent=  4.9049210981D+02 Coefficients=  9.9520000000D-02
     Exponent=  1.7836076720D+02 Coefficients=  2.6555000000D-01
 S 1 1.00
     Exponent=  6.4858460801D+01 Coefficients=  1.0000000000D+00
 S 1 1.00
     Exponent=  2.3584894837D+01 Coefficients=  1.0000000000D+00
 S 1 1.00
     Exponent=  8.5763253951D+00 Coefficients=  1.0000000000D+00
 S 1 1.00
     Exponent=  3.1186637801D+00 Coefficients=  1.0000000000D+00
 S 1 1.00
     Exponent=  1.1340595564D+00 Coefficients=  1.0000000000D+00
 S 1 1.00
     Exponent=  4.1238529323D-01 Coefficients=  1.0000000000D+00
 S 1 1.00
     Exponent=  1.4995828845D-01 Coefficients=  1.0000000000D+00
 S 1 1.00
     Exponent=  5.4530286708D-02 Coefficients=  1.0000000000D+00
 P 5 1.00
     Exponent=  6.9498536057D+02 Coefficients=  2.0000000000D-03
     Exponent=  2.3166178686D+02 Coefficients=  8.9500000000D-03
     Exponent=  7.7220595619D+01 Coefficients=  5.1130000000D-02
     Exponent=  2.5740198540D+01 Coefficients=  2.1011000000D-01
     Exponent=  8.5800661799D+00 Coefficients=  4.9738000000D-01
 P 1 1.00
     Exponent=  2.8600220600D+00 Coefficients=  1.0000000000D+00
 P 1 1.00
     Exponent=  9.5334068665D-01 Coefficients=  1.0000000000D+00
 P 1 1.00
     Exponent=  3.1778022888D-01 Coefficients=  1.0000000000D+00
 P 1 1.00
     Exponent=  1.0592674296D-01 Coefficients=  1.0000000000D+00
 P 1 1.00
     Exponent=  3.5308914320D-02 Coefficients=  1.0000000000D+00
 D 1 1.00
     Exponent=  5.5696000000D-01 Coefficients=  1.0000000000D+00
 D 1 1.00
     Exponent=  1.5619100000D-01 Coefficients=  1.0000000000D+00
 ****
 Centers:   4  9
 S 8 1.00
     Exponent=  7.5448214551D+05 Coefficients=  4.4300000000D-03
     Exponent=  3.3532539800D+05 Coefficients=  1.9800000000D-03
     Exponent=  1.4903351022D+05 Coefficients=  9.0500000000D-03
     Exponent=  6.6237115655D+04 Coefficients=  4.8700000000D-03
     Exponent=  2.9438718069D+04 Coefficients=  2.0770000000D-02
     Exponent=  1.3083874697D+04 Coefficients=  3.2900000000D-02
     Exponent=  5.8150554210D+03 Coefficients=  7.7010000000D-02
     Exponent=  2.5844690760D+03 Coefficients=  1.5160000000D-01
 S 1 1.00
     Exponent=  1.1486529227D+03 Coefficients=  1.0000000000D+00
 S 1 1.00
     Exponent=  5.1051241008D+02 Coefficients=  1.0000000000D+00
 S 1 1.00
     Exponent=  2.2689440448D+02 Coefficients=  1.0000000000D+00
 S 1 1.00
     Exponent=  1.0084195755D+02 Coefficients=  1.0000000000D+00
 S 1 1.00
     Exponent=  4.4818647798D+01 Coefficients=  1.0000000000D+00
 S 1 1.00
     Exponent=  1.9919399021D+01 Coefficients=  1.0000000000D+00
 S 1 1.00
     Exponent=  8.8530662317D+00 Coefficients=  1.0000000000D+00
 S 1 1.00
     Exponent=  3.9346961030D+00 Coefficients=  1.0000000000D+00
 S 1 1.00
     Exponent=  1.7487538235D+00 Coefficients=  1.0000000000D+00
 S 1 1.00
     Exponent=  7.7722392158D-01 Coefficients=  1.0000000000D+00
 S 1 1.00
     Exponent=  3.4543285403D-01 Coefficients=  1.0000000000D+00
 S 1 1.00
     Exponent=  1.5352571290D-01 Coefficients=  1.0000000000D+00
 S 1 1.00
     Exponent=  6.8233650180D-02 Coefficients=  1.0000000000D+00
 S 1 1.00
     Exponent=  1.3478251887D-02 Coefficients=  1.0000000000D+00
 P 5 1.00
     Exponent=  1.0090658304D+04 Coefficients=  2.7500000000D-03
     Exponent=  4.0362633217D+03 Coefficients=  4.1800000000D-03
     Exponent=  1.6145053287D+03 Coefficients=  2.0890000000D-02
     Exponent=  6.4580213147D+02 Coefficients=  7.1370000000D-02
     Exponent=  2.5832085259D+02 Coefficients=  2.2613000000D-01
 P 1 1.00
     Exponent=  1.0332834104D+02 Coefficients=  1.0000000000D+00
 P 1 1.00
     Exponent=  4.1331336414D+01 Coefficients=  1.0000000000D+00
 P 1 1.00
     Exponent=  1.6532534566D+01 Coefficients=  1.0000000000D+00
 P 1 1.00
     Exponent=  6.6130138263D+00 Coefficients=  1.0000000000D+00
 P 1 1.00
     Exponent=  2.6452055305D+00 Coefficients=  1.0000000000D+00
 P 1 1.00
     Exponent=  1.0580822122D+00 Coefficients=  1.0000000000D+00
 P 1 1.00
     Exponent=  4.2323288488D-01 Coefficients=  1.0000000000D+00
 P 1 1.00
     Exponent=  1.6929315395D-01 Coefficients=  1.0000000000D+00
 P 1 1.00
     Exponent=  6.7717261581D-02 Coefficients=  1.0000000000D+00
 P 1 1.00
     Exponent=  2.7086904632D-02 Coefficients=  1.0000000000D+00
 P 1 1.00
     Exponent=  1.0834761853D-02 Coefficients=  1.0000000000D+00
 D 4 1.00
     Exponent=  5.5430250651D+02 Coefficients=  4.3700000000D-03
     Exponent=  2.0156454782D+02 Coefficients=  2.5110000000D-02
     Exponent=  7.3296199207D+01 Coefficients=  1.3316000000D-01
     Exponent=  2.6653163348D+01 Coefficients=  3.8900000000D-01
 D 1 1.00
     Exponent=  9.6920593993D+00 Coefficients=  1.0000000000D+00
 D 1 1.00
     Exponent=  3.5243852361D+00 Coefficients=  1.0000000000D+00
 D 1 1.00
     Exponent=  1.2815946313D+00 Coefficients=  1.0000000000D+00
 D 1 1.00
     Exponent=  4.6603441139D-01 Coefficients=  1.0000000000D+00
 D 1 1.00
     Exponent=  1.6946705869D-01 Coefficients=  1.0000000000D+00
 F 1 1.00
     Exponent=  1.3140000000D+00 Coefficients=  1.0000000000D+00
 F 1 1.00
     Exponent=  1.9993000000D-01 Coefficients=  1.0000000000D+00
 ****
 Centers:   1  8
 S 9 1.00
     Exponent=  2.1644816090D+06 Coefficients=  1.2320000000D-02
     Exponent=  1.0822408045D+06 Coefficients=  1.2970000000D-02
     Exponent=  5.4112040224D+05 Coefficients=  2.6370000000D-02
     Exponent=  2.7056020112D+05 Coefficients=  9.0400000000D-03
     Exponent=  1.3528010056D+05 Coefficients=  3.4980000000D-02
     Exponent=  6.7640050280D+04 Coefficients=  1.2220000000D-02
     Exponent=  3.3820025140D+04 Coefficients=  6.0520000000D-02
     Exponent=  1.6910012570D+04 Coefficients=  6.4930000000D-02
     Exponent=  8.4550062850D+03 Coefficients=  1.3819000000D-01
 S 1 1.00
     Exponent=  4.2275031425D+03 Coefficients=  1.0000000000D+00
 S 1 1.00
     Exponent=  2.1137515713D+03 Coefficients=  1.0000000000D+00
 S 1 1.00
     Exponent=  1.0568757856D+03 Coefficients=  1.0000000000D+00
 S 1 1.00
     Exponent=  5.2843789281D+02 Coefficients=  1.0000000000D+00
 S 1 1.00
     Exponent=  2.6421894641D+02 Coefficients=  1.0000000000D+00
 S 1 1.00
     Exponent=  1.3210947320D+02 Coefficients=  1.0000000000D+00
 S 1 1.00
     Exponent=  6.6054736602D+01 Coefficients=  1.0000000000D+00
 S 1 1.00
     Exponent=  3.3027368301D+01 Coefficients=  1.0000000000D+00
 S 1 1.00
     Exponent=  1.6513684150D+01 Coefficients=  1.0000000000D+00
 S 1 1.00
     Exponent=  8.2568420752D+00 Coefficients=  1.0000000000D+00
 S 1 1.00
     Exponent=  4.1284210376D+00 Coefficients=  1.0000000000D+00
 S 1 1.00
     Exponent=  2.0642105188D+00 Coefficients=  1.0000000000D+00
 S 1 1.00
     Exponent=  1.0321052594D+00 Coefficients=  1.0000000000D+00
 S 1 1.00
     Exponent=  5.1605262970D-01 Coefficients=  1.0000000000D+00
 S 1 1.00
     Exponent=  2.5802631485D-01 Coefficients=  1.0000000000D+00
 S 1 1.00
     Exponent=  1.2901315743D-01 Coefficients=  1.0000000000D+00
 S 1 1.00
     Exponent=  6.4506578713D-02 Coefficients=  1.0000000000D+00
 P 7 1.00
     Exponent=  3.2357915258D+04 Coefficients=  5.0200000000D-03
     Exponent=  1.4381295670D+04 Coefficients=  2.0200000000D-03
     Exponent=  6.3916869645D+03 Coefficients=  1.8070000000D-02
     Exponent=  2.8407497620D+03 Coefficients=  3.6620000000D-02
     Exponent=  1.2625554498D+03 Coefficients=  1.1172000000D-01
     Exponent=  5.6113575545D+02 Coefficients=  2.5586000000D-01
     Exponent=  2.4939366909D+02 Coefficients=  4.2608000000D-01
 P 1 1.00
     Exponent=  1.1084163071D+02 Coefficients=  1.0000000000D+00
 P 1 1.00
     Exponent=  4.9262946981D+01 Coefficients=  1.0000000000D+00
 P 1 1.00
     Exponent=  2.1894643103D+01 Coefficients=  1.0000000000D+00
 P 1 1.00
     Exponent=  9.7309524900D+00 Coefficients=  1.0000000000D+00
 P 1 1.00
     Exponent=  4.3248677733D+00 Coefficients=  1.0000000000D+00
 P 1 1.00
     Exponent=  1.9221634548D+00 Coefficients=  1.0000000000D+00
 P 1 1.00
     Exponent=  8.5429486881D-01 Coefficients=  1.0000000000D+00
 P 1 1.00
     Exponent=  3.7968660836D-01 Coefficients=  1.0000000000D+00
 P 1 1.00
     Exponent=  1.6874960372D-01 Coefficients=  1.0000000000D+00
 P 1 1.00
     Exponent=  7.4999823874D-02 Coefficients=  1.0000000000D+00
 P 1 1.00
     Exponent=  3.3333255055D-02 Coefficients=  1.0000000000D+00
 D 5 1.00
     Exponent=  1.9119003508D+03 Coefficients=  4.3300000000D-03
     Exponent=  7.6476014031D+02 Coefficients=  1.7780000000D-02
     Exponent=  3.0590405613D+02 Coefficients=  8.9710000000D-02
     Exponent=  1.2236162245D+02 Coefficients=  3.1123000000D-01
     Exponent=  4.8944648980D+01 Coefficients=  5.3206000000D-01
 D 1 1.00
     Exponent=  1.9577859592D+01 Coefficients=  1.0000000000D+00
 D 1 1.00
     Exponent=  7.8311438368D+00 Coefficients=  1.0000000000D+00
 D 1 1.00
     Exponent=  3.1324575347D+00 Coefficients=  1.0000000000D+00
 D 1 1.00
     Exponent=  1.2529830139D+00 Coefficients=  1.0000000000D+00
 D 1 1.00
     Exponent=  5.0119320556D-01 Coefficients=  1.0000000000D+00
 D 1 1.00
     Exponent=  2.0047728222D-01 Coefficients=  1.0000000000D+00
 D 1 1.00
     Exponent=  8.0190912889D-02 Coefficients=  1.0000000000D+00
 D 1 1.00
     Exponent=  3.2076365156D-02 Coefficients=  1.0000000000D+00
 F 4 1.00
     Exponent=  8.2289680979D+01 Coefficients=  6.1870000000D-02
     Exponent=  2.9923520356D+01 Coefficients=  2.4823000000D-01
     Exponent=  1.0881280130D+01 Coefficients=  4.9956000000D-01
     Exponent=  3.9568291380D+00 Coefficients=  4.0380000000D-01
 F 1 1.00
     Exponent=  1.4388469593D+00 Coefficients=  1.0000000000D+00
 F 1 1.00
     Exponent=  5.2321707610D-01 Coefficients=  1.0000000000D+00
 G 1 1.00
     Exponent=  2.6700000000D+00 Coefficients=  1.0000000000D+00
 G 1 1.00
     Exponent=  9.0960000000D-01 Coefficients=  1.0000000000D+00
 ****
 Ernie: Thresh=  0.10000D-02 Tol=  0.10000D-05 Strict=F.
 There are  2264 symmetry adapted basis functions of A   symmetry.
 Integral buffers will be    131072 words long.
 Raffenetti 2 integral format.
 Two-electron integral symmetry is turned on.
  2264 basis functions,  3622 primitive gaussians,  2452 cartesian basis functions
   358 alpha electrons      358 beta electrons
       nuclear repulsion energy     24531.4030471201 Hartrees.
 IExCor= 1009 DFT=T Ex=PBE Corr=PBE ExCW=0 ScaHFX=  0.000000
 ScaDFX=  1.000000  1.000000  1.000000  1.000000 ScalE2=  1.000000  1.000000
 IRadAn=      0 IRanWt=     -1 IRanGd=            0 ICorTp=0
 NAtoms=   98 NActive=   98 NUniq=   98 SFac= 7.50D-01 NAtFMM=   80 NAOKFM=T Big=T
 ------------------------------------------------------------------------------
 Polarizable Continuum Model (PCM)
 =================================
 Model                : PCM.
 Atomic radii         : UFF (Universal Force Field).
 Polarization charges : Total charges.
 Charge compensation  : None.
 Solution method      : Matrix inversion.
 Cavity type          : Scaled VdW (van der Waals Surface) (Alpha=1.100).
 Cavity algorithm     : GePol (No added spheres)
                        Default sphere list used, NSphG=   98.
                        Lebedev-Laikov grids with approx.  5.0 points / Ang**2.
                        Smoothing algorithm: Karplus/York (Gamma=1.0000).
                        Polarization charges: spherical gaussians, with
                                              point-specific exponents (IZeta= 3).
                        Self-potential: point-specific (ISelfS= 7).
                        Self-field    : sphere-specific E.n sum rule (ISelfD= 2).
 Solvent              : Dichloromethane, Eps=   8.930000 Eps(inf)=   2.028346
 ------------------------------------------------------------------------------
 GePol: Number of generator spheres                  =      98
 GePol: Total number of spheres                      =      98
 GePol: Number of exposed spheres                    =      98 (100.00%)
 GePol: Number of points                             =    7787
 GePol: Average weight of points                     =       0.14
 GePol: Minimum weight of points                     =   0.13D-11
 GePol: Maximum weight of points                     =    0.21838
 GePol: Number of points with low weight             =     473
 GePol: Fraction of low-weight points (<1% of avg)   =       6.07%
 GePol: Cavity surface area                          =   1078.476 Ang**2
 GePol: Cavity volume                                =   1253.785 Ang**3
 Leave Link  301 at Sat Jun 15 03:07:03 2019, MaxMem=13421772800 cpu:       7.5
 (Enter /home/scr/programs/g09/l302.exe)
 NPDir=0 NMtPBC=     1 NCelOv=     1 NCel=       1 NClECP=     1 NCelD=      1
         NCelK=      1 NCelE2=     1 NClLst=     1 CellRange=     0.0.
 One-electron integrals computed using PRISM.
 NBasis=  2264 RedAO= T  NBF=  2264
 NBsUse=  2264 1.00D-06 NBFU=  2264
 Precomputing XC quadrature grid using
 IXCGrd= 2 IRadAn=           0 IRanWt=          -1 IRanGd=           0 AccXCQ= 1.00D-10.
 Defaulting to unpruned grid for atomic number  78.
 Defaulting to unpruned grid for atomic number  50.
 Defaulting to unpruned grid for atomic number  78.
 NRdTot=    6540 NPtTot=      878560 NUsed=      925627 NTot=      925659
 NSgBfM=  1983  1988  1995  1998  2000 NAtAll=    98    98.
 Leave Link  302 at Sat Jun 15 03:07:39 2019, MaxMem=13421772800 cpu:    1126.6
 (Enter /home/scr/programs/g09/l308.exe)
 Leave Link  308 at Sat Jun 15 03:07:46 2019, MaxMem=13421772800 cpu:     207.8
 (Enter /home/scr/programs/g09/l303.exe)
 DipDrv:  MaxL=1.
 Leave Link  303 at Sat Jun 15 03:07:49 2019, MaxMem=13421772800 cpu:      96.3
 (Enter /home/scr/programs/g09/l401.exe)
 Harris functional with IExCor= 1009 diagonalized for initial guess.
 ExpMin= 1.08D-02 ExpMax= 2.16D+06 ExpMxC= 2.16D+06 IAcc=4 IRadAn=         0 AccDes= 0.00D+00
 HarFok:  IExCor= 1009 AccDes= 0.00D+00 IRadAn=         0 IDoV= 1
 ScaDFX=  1.000000  1.000000  1.000000  1.000000
 Defaulting to unpruned grid for atomic number  78.
 Defaulting to unpruned grid for atomic number  78.
 Defaulting to unpruned grid for atomic number  78.
 Defaulting to unpruned grid for atomic number  78.
 Defaulting to unpruned grid for atomic number  78.
 Defaulting to unpruned grid for atomic number  78.
 Defaulting to unpruned grid for atomic number  78.
 Defaulting to unpruned grid for atomic number  78.
 Defaulting to unpruned grid for atomic number  78.
 Defaulting to unpruned grid for atomic number  78.
 Defaulting to unpruned grid for atomic number  78.
 Defaulting to unpruned grid for atomic number  78.
 Defaulting to unpruned grid for atomic number  78.
 Defaulting to unpruned grid for atomic number  78.
 Defaulting to unpruned grid for atomic number  78.
 Defaulting to unpruned grid for atomic number  78.
 Defaulting to unpruned grid for atomic number  78.
 Defaulting to unpruned grid for atomic number  78.
 Defaulting to unpruned grid for atomic number  78.
 Defaulting to unpruned grid for atomic number  78.
 Defaulting to unpruned grid for atomic number  78.
 Defaulting to unpruned grid for atomic number  78.
 Defaulting to unpruned grid for atomic number  78.
 Defaulting to unpruned grid for atomic number  78.
 Defaulting to unpruned grid for atomic number  78.
 Defaulting to unpruned grid for atomic number  78.
 Defaulting to unpruned grid for atomic number  78.
 Defaulting to unpruned grid for atomic number  78.
 Defaulting to unpruned grid for atomic number  78.
 Defaulting to unpruned grid for atomic number  78.
 Defaulting to unpruned grid for atomic number  78.
 Defaulting to unpruned grid for atomic number  78.
 FoFCou: FMM=F IPFlag=           0 FMFlag=      100000 FMFlg1=        2001
         NFxFlg=           0 DoJE=T BraDBF=F KetDBF=T FulRan=T
         Omega=  0.000000  0.000000  1.000000  0.000000  0.000000 ICntrl=     500 IOpCl=  0
         NMat0=    1 NMatS0=    1 NMatT0=    0 NMatD0=    1 NMtDS0=    0 NMtDT0=    0
         I1Cent=           4 NGrid=           0.
 Petite list used in FoFCou.
 Harris En= -52201.2328493007    
 Initial guess orbital symmetries:
       Occupied  (A) (A) (A) (A) (A) (A) (A) (A) (A) (A) (A) (A)
                 (A) (A) (A) (A) (A) (A) (A) (A) (A) (A) (A) (A)
                 (A) (A) (A) (A) (A) (A) (A) (A) (A) (A) (A) (A)
                 (A) (A) (A) (A) (A) (A) (A) (A) (A) (A) (A) (A)
                 (A) (A) (A) (A) (A) (A) (A) (A) (A) (A) (A) (A)
                 (A) (A) (A) (A) (A) (A) (A) (A) (A) (A) (A) (A)
                 (A) (A) (A) (A) (A) (A) (A) (A) (A) (A) (A) (A)
                 (A) (A) (A) (A) (A) (A) (A) (A) (A) (A) (A) (A)
                 (A) (A) (A) (A) (A) (A) (A) (A) (A) (A) (A) (A)
                 (A) (A) (A) (A) (A) (A) (A) (A) (A) (A) (A) (A)
                 (A) (A) (A) (A) (A) (A) (A) (A) (A) (A) (A) (A)
                 (A) (A) (A) (A) (A) (A) (A) (A) (A) (A) (A) (A)
                 (A) (A) (A) (A) (A) (A) (A) (A) (A) (A) (A) (A)
                 (A) (A) (A) (A) (A) (A) (A) (A) (A) (A) (A) (A)
                 (A) (A) (A) (A) (A) (A) (A) (A) (A) (A) (A) (A)
                 (A) (A) (A) (A) (A) (A) (A) (A) (A) (A) (A) (A)
                 (A) (A) (A) (A) (A) (A) (A) (A) (A) (A) (A) (A)
                 (A) (A) (A) (A) (A) (A) (A) (A) (A) (A) (A) (A)
                 (A) (A) (A) (A) (A) (A) (A) (A) (A) (A) (A) (A)
                 (A) (A) (A) (A) (A) (A) (A) (A) (A) (A) (A) (A)
                 (A) (A) (A) (A) (A) (A) (A) (A) (A) (A) (A) (A)
                 (A) (A) (A) (A) (A) (A) (A) (A) (A) (A) (A) (A)
                 (A) (A) (A) (A) (A) (A) (A) (A) (A) (A) (A) (A)
                 (A) (A) (A) (A) (A) (A) (A) (A) (A) (A) (A) (A)
                 (A) (A) (A) (A) (A) (A) (A) (A) (A) (A) (A) (A)
                 (A) (A) (A) (A) (A) (A) (A) (A) (A) (A) (A) (A)
                 (A) (A) (A) (A) (A) (A) (A) (A) (A) (A) (A) (A)
                 (A) (A) (A) (A) (A) (A) (A) (A) (A) (A) (A) (A)
                 (A) (A) (A) (A) (A) (A) (A) (A) (A) (A) (A) (A)
                 (A) (A) (A) (A) (A) (A) (A) (A) (A) (A)
       Virtual   (A) (A) (A) (A) (A) (A) (A) (A) (A) (A) (A) (A)
                 (A) (A) (A) (A) (A) (A) (A) (A) (A) (A) (A) (A)
                 (A) (A) (A) (A) (A) (A) (A) (A) (A) (A) (A) (A)
                 (A) (A) (A) (A) (A) (A) (A) (A) (A) (A) (A) (A)
                 (A) (A) (A) (A) (A) (A) (A) (A) (A) (A) (A) (A)
                 (A) (A) (A) (A) (A) (A) (A) (A) (A) (A) (A) (A)
                 (A) (A) (A) (A) (A) (A) (A) (A) (A) (A) (A) (A)
                 (A) (A) (A) (A) (A) (A) (A) (A) (A) (A) (A) (A)
                 (A) (A) (A) (A) (A) (A) (A) (A) (A) (A) (A) (A)
                 (A) (A) (A) (A) (A) (A) (A) (A) (A) (A) (A) (A)
                 (A) (A) (A) (A) (A) (A) (A) (A) (A) (A) (A) (A)
                 (A) (A) (A) (A) (A) (A) (A) (A) (A) (A) (A) (A)
                 (A) (A) (A) (A) (A) (A) (A) (A) (A) (A) (A) (A)
                 (A) (A) (A) (A) (A) (A) (A) (A) (A) (A) (A) (A)
                 (A) (A) (A) (A) (A) (A) (A) (A) (A) (A) (A) (A)
                 (A) (A) (A) (A) (A) (A) (A) (A) (A) (A) (A) (A)
                 (A) (A) (A) (A) (A) (A) (A) (A) (A) (A) (A) (A)
                 (A) (A) (A) (A) (A) (A) (A) (A) (A) (A) (A) (A)
                 (A) (A) (A) (A) (A) (A) (A) (A) (A) (A) (A) (A)
                 (A) (A) (A) (A) (A) (A) (A) (A) (A) (A) (A) (A)
                 (A) (A) (A) (A) (A) (A) (A) (A) (A) (A) (A) (A)
                 (A) (A) (A) (A) (A) (A) (A) (A) (A) (A) (A) (A)
                 (A) (A) (A) (A) (A) (A) (A) (A) (A) (A) (A) (A)
                 (A) (A) (A) (A) (A) (A) (A) (A) (A) (A) (A) (A)
                 (A) (A) (A) (A) (A) (A) (A) (A) (A) (A) (A) (A)
                 (A) (A) (A) (A) (A) (A) (A) (A) (A) (A) (A) (A)
                 (A) (A) (A) (A) (A) (A) (A) (A) (A) (A) (A) (A)
                 (A) (A) (A) (A) (A) (A) (A) (A) (A) (A) (A) (A)
                 (A) (A) (A) (A) (A) (A) (A) (A) (A) (A) (A) (A)
                 (A) (A) (A) (A) (A) (A) (A) (A) (A) (A) (A) (A)
                 (A) (A) (A) (A) (A) (A) (A) (A) (A) (A) (A) (A)
                 (A) (A) (A) (A) (A) (A) (A) (A) (A) (A) (A) (A)
                 (A) (A) (A) (A) (A) (A) (A) (A) (A) (A) (A) (A)
                 (A) (A) (A) (A) (A) (A) (A) (A) (A) (A) (A) (A)
                 (A) (A) (A) (A) (A) (A) (A) (A) (A) (A) (A) (A)
                 (A) (A) (A) (A) (A) (A) (A) (A) (A) (A) (A) (A)
                 (A) (A) (A) (A) (A) (A) (A) (A) (A) (A) (A) (A)
                 (A) (A) (A) (A) (A) (A) (A) (A) (A) (A) (A) (A)
                 (A) (A) (A) (A) (A) (A) (A) (A) (A) (A) (A) (A)
                 (A) (A) (A) (A) (A) (A) (A) (A) (A) (A) (A) (A)
                 (A) (A) (A) (A) (A) (A) (A) (A) (A) (A) (A) (A)
                 (A) (A) (A) (A) (A) (A) (A) (A) (A) (A) (A) (A)
                 (A) (A) (A) (A) (A) (A) (A) (A) (A) (A) (A) (A)
                 (A) (A) (A) (A) (A) (A) (A) (A) (A) (A) (A) (A)
                 (A) (A) (A) (A) (A) (A) (A) (A) (A) (A) (A) (A)
                 (A) (A) (A) (A) (A) (A) (A) (A) (A) (A) (A) (A)
                 (A) (A) (A) (A) (A) (A) (A) (A) (A) (A) (A) (A)
                 (A) (A) (A) (A) (A) (A) (A) (A) (A) (A) (A) (A)
                 (A) (A) (A) (A) (A) (A) (A) (A) (A) (A) (A) (A)
                 (A) (A) (A) (A) (A) (A) (A) (A) (A) (A) (A) (A)
                 (A) (A) (A) (A) (A) (A) (A) (A) (A) (A) (A) (A)
                 (A) (A) (A) (A) (A) (A) (A) (A) (A) (A) (A) (A)
                 (A) (A) (A) (A) (A) (A) (A) (A) (A) (A) (A) (A)
                 (A) (A) (A) (A) (A) (A) (A) (A) (A) (A) (A) (A)
                 (A) (A) (A) (A) (A) (A) (A) (A) (A) (A) (A) (A)
                 (A) (A) (A) (A) (A) (A) (A) (A) (A) (A) (A) (A)
                 (A) (A) (A) (A) (A) (A) (A) (A) (A) (A) (A) (A)
                 (A) (A) (A) (A) (A) (A) (A) (A) (A) (A) (A) (A)
                 (A) (A) (A) (A) (A) (A) (A) (A) (A) (A) (A) (A)
                 (A) (A) (A) (A) (A) (A) (A) (A) (A) (A) (A) (A)
                 (A) (A) (A) (A) (A) (A) (A) (A) (A) (A) (A) (A)
                 (A) (A) (A) (A) (A) (A) (A) (A) (A) (A) (A) (A)
                 (A) (A) (A) (A) (A) (A) (A) (A) (A) (A) (A) (A)
                 (A) (A) (A) (A) (A) (A) (A) (A) (A) (A) (A) (A)
                 (A) (A) (A) (A) (A) (A) (A) (A) (A) (A) (A) (A)
                 (A) (A) (A) (A) (A) (A) (A) (A) (A) (A) (A) (A)
                 (A) (A) (A) (A) (A) (A) (A) (A) (A) (A) (A) (A)
                 (A) (A) (A) (A) (A) (A) (A) (A) (A) (A) (A) (A)
                 (A) (A) (A) (A) (A) (A) (A) (A) (A) (A) (A) (A)
                 (A) (A) (A) (A) (A) (A) (A) (A) (A) (A) (A) (A)
                 (A) (A) (A) (A) (A) (A) (A) (A) (A) (A) (A) (A)
                 (A) (A) (A) (A) (A) (A) (A) (A) (A) (A) (A) (A)
                 (A) (A) (A) (A) (A) (A) (A) (A) (A) (A) (A) (A)
                 (A) (A) (A) (A) (A) (A) (A) (A) (A) (A) (A) (A)
                 (A) (A) (A) (A) (A) (A) (A) (A) (A) (A) (A) (A)
                 (A) (A) (A) (A) (A) (A) (A) (A) (A) (A) (A) (A)
                 (A) (A) (A) (A) (A) (A) (A) (A) (A) (A) (A) (A)
                 (A) (A) (A) (A) (A) (A) (A) (A) (A) (A) (A) (A)
                 (A) (A) (A) (A) (A) (A) (A) (A) (A) (A) (A) (A)
                 (A) (A) (A) (A) (A) (A) (A) (A) (A) (A) (A) (A)
                 (A) (A) (A) (A) (A) (A) (A) (A) (A) (A) (A) (A)
                 (A) (A) (A) (A) (A) (A) (A) (A) (A) (A) (A) (A)
                 (A) (A) (A) (A) (A) (A) (A) (A) (A) (A) (A) (A)
                 (A) (A) (A) (A) (A) (A) (A) (A) (A) (A) (A) (A)
                 (A) (A) (A) (A) (A) (A) (A) (A) (A) (A) (A) (A)
                 (A) (A) (A) (A) (A) (A) (A) (A) (A) (A) (A) (A)
                 (A) (A) (A) (A) (A) (A) (A) (A) (A) (A) (A) (A)
                 (A) (A) (A) (A) (A) (A) (A) (A) (A) (A) (A) (A)
                 (A) (A) (A) (A) (A) (A) (A) (A) (A) (A) (A) (A)
                 (A) (A) (A) (A) (A) (A) (A) (A) (A) (A) (A) (A)
                 (A) (A) (A) (A) (A) (A) (A) (A) (A) (A) (A) (A)
                 (A) (A) (A) (A) (A) (A) (A) (A) (A) (A) (A) (A)
                 (A) (A) (A) (A) (A) (A) (A) (A) (A) (A) (A) (A)
                 (A) (A) (A) (A) (A) (A) (A) (A) (A) (A) (A) (A)
                 (A) (A) (A) (A) (A) (A) (A) (A) (A) (A) (A) (A)
                 (A) (A) (A) (A) (A) (A) (A) (A) (A) (A) (A) (A)
                 (A) (A) (A) (A) (A) (A) (A) (A) (A) (A) (A) (A)
                 (A) (A) (A) (A) (A) (A) (A) (A) (A) (A) (A) (A)
                 (A) (A) (A) (A) (A) (A) (A) (A) (A) (A) (A) (A)
                 (A) (A) (A) (A) (A) (A) (A) (A) (A) (A) (A) (A)
                 (A) (A) (A) (A) (A) (A) (A) (A) (A) (A) (A) (A)
                 (A) (A) (A) (A) (A) (A) (A) (A) (A) (A) (A) (A)
                 (A) (A) (A) (A) (A) (A) (A) (A) (A) (A) (A) (A)
                 (A) (A) (A) (A) (A) (A) (A) (A) (A) (A) (A) (A)
                 (A) (A) (A) (A) (A) (A) (A) (A) (A) (A) (A) (A)
                 (A) (A) (A) (A) (A) (A) (A) (A) (A) (A) (A) (A)
                 (A) (A) (A) (A) (A) (A) (A) (A) (A) (A) (A) (A)
                 (A) (A) (A) (A) (A) (A) (A) (A) (A) (A) (A) (A)
                 (A) (A) (A) (A) (A) (A) (A) (A) (A) (A) (A) (A)
                 (A) (A) (A) (A) (A) (A) (A) (A) (A) (A) (A) (A)
                 (A) (A) (A) (A) (A) (A) (A) (A) (A) (A) (A) (A)
                 (A) (A) (A) (A) (A) (A) (A) (A) (A) (A) (A) (A)
                 (A) (A) (A) (A) (A) (A) (A) (A) (A) (A) (A) (A)
                 (A) (A) (A) (A) (A) (A) (A) (A) (A) (A) (A) (A)
                 (A) (A) (A) (A) (A) (A) (A) (A) (A) (A) (A) (A)
                 (A) (A) (A) (A) (A) (A) (A) (A) (A) (A) (A) (A)
                 (A) (A) (A) (A) (A) (A) (A) (A) (A) (A) (A) (A)
                 (A) (A) (A) (A) (A) (A) (A) (A) (A) (A) (A) (A)
                 (A) (A) (A) (A) (A) (A) (A) (A) (A) (A) (A) (A)
                 (A) (A) (A) (A) (A) (A) (A) (A) (A) (A) (A) (A)
                 (A) (A) (A) (A) (A) (A) (A) (A) (A) (A) (A) (A)
                 (A) (A) (A) (A) (A) (A) (A) (A) (A) (A) (A) (A)
                 (A) (A) (A) (A) (A) (A) (A) (A) (A) (A) (A) (A)
                 (A) (A) (A) (A) (A) (A) (A) (A) (A) (A) (A) (A)
                 (A) (A) (A) (A) (A) (A) (A) (A) (A) (A) (A) (A)
                 (A) (A) (A) (A) (A) (A) (A) (A) (A) (A) (A) (A)
                 (A) (A) (A) (A) (A) (A) (A) (A) (A) (A) (A) (A)
                 (A) (A) (A) (A) (A) (A) (A) (A) (A) (A) (A) (A)
                 (A) (A) (A) (A) (A) (A) (A) (A) (A) (A) (A) (A)
                 (A) (A) (A) (A) (A) (A) (A) (A) (A) (A) (A) (A)
                 (A) (A) (A) (A) (A) (A) (A) (A) (A) (A) (A) (A)
                 (A) (A) (A) (A) (A) (A) (A) (A) (A) (A) (A) (A)
                 (A) (A) (A) (A) (A) (A) (A) (A) (A) (A) (A) (A)
                 (A) (A) (A) (A) (A) (A) (A) (A) (A) (A) (A) (A)
                 (A) (A) (A) (A) (A) (A) (A) (A) (A) (A) (A) (A)
                 (A) (A) (A) (A) (A) (A) (A) (A) (A) (A) (A) (A)
                 (A) (A) (A) (A) (A) (A) (A) (A) (A) (A) (A) (A)
                 (A) (A) (A) (A) (A) (A) (A) (A) (A) (A) (A) (A)
                 (A) (A) (A) (A) (A) (A) (A) (A) (A) (A) (A) (A)
                 (A) (A) (A) (A) (A) (A) (A) (A) (A) (A) (A) (A)
                 (A) (A) (A) (A) (A) (A) (A) (A) (A) (A) (A) (A)
                 (A) (A) (A) (A) (A) (A) (A) (A) (A) (A) (A) (A)
                 (A) (A) (A) (A) (A) (A) (A) (A) (A) (A) (A) (A)
                 (A) (A) (A) (A) (A) (A) (A) (A) (A) (A) (A) (A)
                 (A) (A) (A) (A) (A) (A) (A) (A) (A) (A) (A) (A)
                 (A) (A) (A) (A) (A) (A) (A) (A) (A) (A) (A) (A)
                 (A) (A) (A) (A) (A) (A) (A) (A) (A) (A) (A) (A)
                 (A) (A) (A) (A) (A) (A) (A) (A) (A) (A) (A) (A)
                 (A) (A) (A) (A) (A) (A) (A) (A) (A) (A) (A) (A)
                 (A) (A) (A) (A) (A) (A) (A) (A) (A) (A) (A) (A)
                 (A) (A) (A) (A) (A) (A) (A) (A) (A) (A) (A) (A)
                 (A) (A) (A) (A) (A) (A) (A) (A) (A) (A) (A) (A)
                 (A) (A) (A) (A) (A) (A) (A) (A) (A) (A) (A) (A)
                 (A) (A) (A) (A) (A) (A) (A) (A) (A) (A) (A) (A)
                 (A) (A) (A) (A) (A) (A) (A) (A) (A) (A) (A) (A)
                 (A) (A) (A) (A) (A) (A) (A) (A) (A) (A) (A) (A)
                 (A) (A) (A) (A) (A) (A) (A) (A) (A) (A) (A) (A)
                 (A) (A) (A) (A) (A) (A) (A) (A) (A) (A) (A) (A)
                 (A) (A) (A) (A) (A) (A) (A) (A) (A) (A)
 The electronic state of the initial guess is 1-A.
 Leave Link  401 at Sat Jun 15 03:08:37 2019, MaxMem=13421772800 cpu:    1496.6
 (Enter /home/scr/programs/g09/l502.exe)
 Closed shell SCF:
 Requested convergence on RMS density matrix=1.00D-04 within 500 cycles.
 Requested convergence on MAX density matrix=1.00D-02.
 Requested convergence on             energy=1.00D-02.
 No special actions if energy rises.
 Using DIIS extrapolation, IDIIS=  1040.
 Integral symmetry usage will be decided dynamically.
       924732 words used for storage of precomputed grid.
 IEnd=    19311902 IEndB=    19311902 NGot= 13421772800 MDV= 13408726655
 LenX= 13408726655 LenY= 13402711899
 Fock matrices will be formed incrementally for  20 cycles.

 Cycle   1  Pass 1  IDiag  1:
 FoFCou: FMM=T IPFlag=           0 FMFlag=      100000 FMFlg1=        2001
         NFxFlg=           0 DoJE=T BraDBF=F KetDBF=F FulRan=T
         Omega=  0.000000  0.000000  1.000000  0.000000  0.000000 ICntrl=     500 IOpCl=  0
         NMat0=    1 NMatS0=    1 NMatT0=    0 NMatD0=    1 NMtDS0=    0 NMtDT0=    0
         I1Cent=           0 NGrid=           0.
 Symmetry not used in FoFCou.
 FMM levels:  10  Number of levels for PrismC:   9
 Defaulting to unpruned grid for atomic number  78.
 Defaulting to unpruned grid for atomic number  78.
 Defaulting to unpruned grid for atomic number  78.
 Defaulting to unpruned grid for atomic number  78.
 Defaulting to unpruned grid for atomic number  78.
 Defaulting to unpruned grid for atomic number  78.
 Defaulting to unpruned grid for atomic number  78.
 Defaulting to unpruned grid for atomic number  78.
 Defaulting to unpruned grid for atomic number  78.
 Defaulting to unpruned grid for atomic number  78.
 Defaulting to unpruned grid for atomic number  78.
 Defaulting to unpruned grid for atomic number  78.
 Defaulting to unpruned grid for atomic number  78.
 Defaulting to unpruned grid for atomic number  78.
 Defaulting to unpruned grid for atomic number  78.
 Defaulting to unpruned grid for atomic number  78.
 Defaulting to unpruned grid for atomic number  78.
 Defaulting to unpruned grid for atomic number  78.
 Defaulting to unpruned grid for atomic number  78.
 Defaulting to unpruned grid for atomic number  78.
 Defaulting to unpruned grid for atomic number  78.
 Defaulting to unpruned grid for atomic number  78.
 Defaulting to unpruned grid for atomic number  78.
 Defaulting to unpruned grid for atomic number  78.
 Defaulting to unpruned grid for atomic number  78.
 Defaulting to unpruned grid for atomic number  78.
 Defaulting to unpruned grid for atomic number  78.
 Defaulting to unpruned grid for atomic number  78.
 Defaulting to unpruned grid for atomic number  78.
 Defaulting to unpruned grid for atomic number  78.
 Defaulting to unpruned grid for atomic number  78.
 Defaulting to unpruned grid for atomic number  78.
 E= -52159.8696517642    
 DIIS: error= 2.77D-01 at cycle   1 NSaved=   1.
 NSaved= 1 IEnMin= 1 EnMin= -52159.8696517642     IErMin= 1 ErrMin= 2.77D-01
 ErrMax= 2.77D-01 EMaxC= 1.00D-01 BMatC= 6.91D+02 BMatP= 6.91D+02
 IDIUse=3 WtCom= 0.00D+00 WtEn= 1.00D+00
 Coeff-Com:  0.100D+01
 Coeff-En:   0.100D+01
 Coeff:      0.100D+01
 Gap=     0.753 Goal=   None    Shift=    0.000
 GapD=    0.753 DampG=2.000 DampE=0.125 DampFc=0.2500 IDamp=-1.
 Damping current iteration by 2.50D-01
 RMSDP=1.56D-02 MaxDP=2.90D+00              OVMax= 6.77D-01

 Cycle   2  Pass 1  IDiag  1:
 RMSU=  2.32D-03    CP:  1.12D+00
 E= -52162.7779854744     Delta-E=       -2.908333710191 Rises=F Damp=T
 DIIS: error= 2.04D-01 at cycle   2 NSaved=   2.
 NSaved= 2 IEnMin= 2 EnMin= -52162.7779854744     IErMin= 2 ErrMin= 2.04D-01
 ErrMax= 2.04D-01 EMaxC= 1.00D-01 BMatC= 3.38D+02 BMatP= 6.91D+02
 IDIUse=3 WtCom= 0.00D+00 WtEn= 1.00D+00
 Coeff-Com: -0.206D+01 0.306D+01
 Coeff-En:   0.000D+00 0.100D+01
 Coeff:      0.000D+00 0.100D+01
 Gap=     0.003 Goal=   None    Shift=    0.000
 RMSDP=3.75D-03 MaxDP=5.80D-01 DE=-2.91D+00 OVMax= 8.91D-01

 Cycle   3  Pass 1  IDiag  1:
 RMSU=  2.16D-03    CP:  9.99D-01  8.14D-01
 E= -52167.2049329511     Delta-E=       -4.426947476648 Rises=F Damp=F
 DIIS: error= 4.69D-02 at cycle   3 NSaved=   3.
 NSaved= 3 IEnMin= 3 EnMin= -52167.2049329511     IErMin= 3 ErrMin= 4.69D-02
 ErrMax= 4.69D-02 EMaxC= 1.00D-01 BMatC= 1.76D+01 BMatP= 3.38D+02
 IDIUse=3 WtCom= 5.31D-01 WtEn= 4.69D-01
 Coeff-Com:  0.963D+00-0.119D+01 0.122D+01
 Coeff-En:   0.117D+00 0.000D+00 0.883D+00
 Coeff:      0.567D+00-0.631D+00 0.106D+01
 Gap=     0.250 Goal=   None    Shift=    0.000
 RMSDP=1.25D-02 MaxDP=2.08D+00 DE=-4.43D+00 OVMax= 7.34D-01

 Cycle   4  Pass 1  IDiag  1:
 RMSU=  7.15D-03    CP:  1.23D+00  1.90D+00 -6.86D-01
 E= -52143.5736044317     Delta-E=       23.631328519390 Rises=F Damp=F
 DIIS: error= 3.89D-02 at cycle   4 NSaved=   4.
 NSaved= 4 IEnMin= 3 EnMin= -52167.2049329511     IErMin= 4 ErrMin= 3.89D-02
 ErrMax= 3.89D-02 EMaxC= 1.00D-01 BMatC= 2.03D+01 BMatP= 1.76D+01
 IDIUse=2 WtCom= 0.00D+00 WtEn= 1.00D+00
 EnCoef did     4 forward-backward iterations
 Coeff-En:   0.104D+00 0.000D+00 0.856D+00 0.393D-01
 Coeff:      0.104D+00 0.000D+00 0.856D+00 0.393D-01
 Gap=     0.038 Goal=   None    Shift=    0.000
 RMSDP=1.06D-02 MaxDP=1.85D+00 DE= 2.36D+01 OVMax= 9.52D-01

 Cycle   5  Pass 1  IDiag  1:
 RMSU=  2.57D-03    CP:  1.04D+00  7.28D-01  9.93D-02  1.80D-01
 E= -52156.2257669782     Delta-E=      -12.652162546510 Rises=F Damp=F
 DIIS: error= 7.20D-02 at cycle   5 NSaved=   5.
 NSaved= 5 IEnMin= 3 EnMin= -52167.2049329511     IErMin= 4 ErrMin= 3.89D-02
 ErrMax= 7.20D-02 EMaxC= 1.00D-01 BMatC= 2.29D+01 BMatP= 1.76D+01
 IDIUse=2 WtCom= 0.00D+00 WtEn= 1.00D+00
 EnCoef did   100 forward-backward iterations
 Coeff-En:   0.000D+00 0.000D+00 0.801D+00 0.580D-02 0.194D+00
 Coeff:      0.000D+00 0.000D+00 0.801D+00 0.580D-02 0.194D+00
 Gap=     0.014 Goal=   None    Shift=    0.000
 RMSDP=4.09D-03 MaxDP=5.99D-01 DE=-1.27D+01 OVMax= 4.59D-01

 Cycle   6  Pass 1  IDiag  1:
 RMSU=  1.58D-03    CP:  1.02D+00  7.58D-01  3.86D-01  1.06D-01  1.18D-01
 E= -52168.2981618336     Delta-E=      -12.072394855408 Rises=F Damp=F
 DIIS: error= 3.00D-02 at cycle   6 NSaved=   6.
 NSaved= 6 IEnMin= 6 EnMin= -52168.2981618336     IErMin= 6 ErrMin= 3.00D-02
 ErrMax= 3.00D-02 EMaxC= 1.00D-01 BMatC= 4.25D+00 BMatP= 1.76D+01
 IDIUse=3 WtCom= 7.00D-01 WtEn= 3.00D-01
 Coeff-Com:  0.106D+00-0.122D+00 0.417D+00-0.250D-02 0.215D-01 0.580D+00
 Coeff-En:   0.000D+00 0.000D+00 0.331D+00 0.000D+00 0.000D+00 0.669D+00
 Coeff:      0.744D-01-0.856D-01 0.391D+00-0.175D-02 0.151D-01 0.607D+00
 Gap=     0.135 Goal=   None    Shift=    0.000
 RMSDP=2.40D-03 MaxDP=3.56D-01 DE=-1.21D+01 OVMax= 3.37D-01

 Cycle   7  Pass 1  IDiag  1:
 RMSU=  7.71D-04    CP:  1.03D+00  7.29D-01  5.92D-01  3.73D-02  1.67D-01
                    CP:  1.54D-01
 E= -52168.5752319124     Delta-E=       -0.277070078853 Rises=F Damp=F
 DIIS: error= 8.36D-03 at cycle   7 NSaved=   7.
 NSaved= 7 IEnMin= 7 EnMin= -52168.5752319124     IErMin= 7 ErrMin= 8.36D-03
 ErrMax= 8.36D-03 EMaxC= 1.00D-01 BMatC= 8.84D-01 BMatP= 4.25D+00
 IDIUse=3 WtCom= 9.16D-01 WtEn= 8.36D-02
 EnCoef did     4 forward-backward iterations
 Coeff-Com: -0.230D-01 0.409D-01 0.206D+00-0.132D-01-0.395D-01 0.446D+00
 Coeff-Com:  0.383D+00
 Coeff-En:   0.000D+00 0.000D+00 0.169D+00 0.000D+00 0.000D+00 0.364D+00
 Coeff-En:   0.467D+00
 Coeff:     -0.211D-01 0.375D-01 0.202D+00-0.121D-01-0.362D-01 0.439D+00
 Coeff:      0.390D+00
 Gap=     0.113 Goal=   None    Shift=    0.000
 RMSDP=1.11D-03 MaxDP=1.32D-01 DE=-2.77D-01 OVMax= 1.57D-01

 Cycle   8  Pass 1  IDiag  1:
 RMSU=  3.86D-04    CP:  1.00D+00  6.80D-01  6.18D-01  3.84D-02  1.33D-01
                    CP:  3.65D-01  4.40D-01
 E= -52169.2296793078     Delta-E=       -0.654447395384 Rises=F Damp=F
 DIIS: error= 4.26D-03 at cycle   8 NSaved=   8.
 NSaved= 8 IEnMin= 8 EnMin= -52169.2296793078     IErMin= 8 ErrMin= 4.26D-03
 ErrMax= 4.26D-03 EMaxC= 1.00D-01 BMatC= 1.24D-01 BMatP= 8.84D-01
 IDIUse=3 WtCom= 9.57D-01 WtEn= 4.26D-02
 Coeff-Com: -0.450D-01 0.651D-01 0.954D-01-0.927D-02-0.392D-01 0.279D+00
 Coeff-Com:  0.291D+00 0.363D+00
 Coeff-En:   0.000D+00 0.000D+00 0.000D+00 0.000D+00 0.000D+00 0.000D+00
 Coeff-En:   0.000D+00 0.100D+01
 Coeff:     -0.431D-01 0.623D-01 0.913D-01-0.887D-02-0.375D-01 0.267D+00
 Coeff:      0.279D+00 0.390D+00
 Gap=     0.105 Goal=   None    Shift=    0.000
 RMSDP=4.56D-04 MaxDP=6.43D-02 DE=-6.54D-01 OVMax= 5.37D-02

 Cycle   9  Pass 1  IDiag  1:
 RMSU=  2.40D-04    CP:  1.00D+00  6.86D-01  6.27D-01  3.75D-02  1.12D-01
                    CP:  3.98D-01  4.90D-01  4.94D-01
 E= -52169.2897945840     Delta-E=       -0.060115276137 Rises=F Damp=F
 DIIS: error= 2.20D-03 at cycle   9 NSaved=   9.
 NSaved= 9 IEnMin= 9 EnMin= -52169.2897945840     IErMin= 9 ErrMin= 2.20D-03
 ErrMax= 2.20D-03 EMaxC= 1.00D-01 BMatC= 4.72D-02 BMatP= 1.24D-01
 IDIUse=3 WtCom= 9.78D-01 WtEn= 2.20D-02
 Coeff-Com: -0.321D-01 0.438D-01 0.171D-01-0.201D-02-0.117D-01 0.931D-01
 Coeff-Com:  0.543D-01 0.339D+00 0.498D+00
 Coeff-En:   0.000D+00 0.000D+00 0.000D+00 0.000D+00 0.000D+00 0.000D+00
 Coeff-En:   0.000D+00 0.283D+00 0.717D+00
 Coeff:     -0.313D-01 0.428D-01 0.167D-01-0.197D-02-0.114D-01 0.910D-01
 Coeff:      0.531D-01 0.338D+00 0.503D+00
 Gap=     0.086 Goal=   None    Shift=    0.000
 RMSDP=3.53D-04 MaxDP=4.30D-02 DE=-6.01D-02 OVMax= 3.08D-02

 Cycle  10  Pass 1  IDiag  1:
 RMSU=  1.92D-04    CP:  1.01D+00  7.27D-01  6.36D-01  4.17D-02  1.06D-01
                    CP:  4.12D-01  5.28D-01  5.89D-01  8.09D-01
 E= -52169.3134137847     Delta-E=       -0.023619200685 Rises=F Damp=F
 DIIS: error= 6.24D-04 at cycle  10 NSaved=  10.
 NSaved=10 IEnMin=10 EnMin= -52169.3134137847     IErMin=10 ErrMin= 6.24D-04
 ErrMax= 6.24D-04 EMaxC= 1.00D-01 BMatC= 5.54D-03 BMatP= 4.72D-02
 IDIUse=3 WtCom= 9.94D-01 WtEn= 6.24D-03
 Coeff-Com: -0.195D-01 0.263D-01 0.275D-02-0.862D-04-0.849D-03 0.382D-01
 Coeff-Com: -0.131D-02 0.192D+00 0.334D+00 0.428D+00
 Coeff-En:   0.000D+00 0.000D+00 0.000D+00 0.000D+00 0.000D+00 0.000D+00
 Coeff-En:   0.000D+00 0.000D+00 0.735D-01 0.926D+00
 Coeff:     -0.194D-01 0.261D-01 0.274D-02-0.857D-04-0.843D-03 0.379D-01
 Coeff:     -0.131D-02 0.191D+00 0.333D+00 0.431D+00
 Gap=     0.080 Goal=   None    Shift=    0.000
 RMSDP=2.34D-04 MaxDP=2.43D-02 DE=-2.36D-02 OVMax= 1.51D-02

 Cycle  11  Pass 1  IDiag  1:
 RMSU=  1.23D-04    CP:  1.01D+00  7.30D-01  6.34D-01  4.14D-02  1.13D-01
                    CP:  4.37D-01  5.53D-01  7.41D-01  1.05D+00  1.28D+00
 E= -52169.3190422096     Delta-E=       -0.005628424900 Rises=F Damp=F
 DIIS: error= 1.43D-04 at cycle  11 NSaved=  11.
 NSaved=11 IEnMin=11 EnMin= -52169.3190422096     IErMin=11 ErrMin= 1.43D-04
 ErrMax= 1.43D-04 EMaxC= 1.00D-01 BMatC= 3.98D-04 BMatP= 5.54D-03
 IDIUse=3 WtCom= 9.99D-01 WtEn= 1.43D-03
 EnCoef did     1 forward-backward iterations
 Coeff-Com: -0.109D-01 0.146D-01 0.582D-03 0.194D-03 0.764D-04 0.187D-01
 Coeff-Com: -0.183D-03 0.916D-01 0.150D+00 0.260D+00 0.475D+00
 Coeff-En:   0.000D+00 0.000D+00 0.000D+00 0.000D+00 0.000D+00 0.000D+00
 Coeff-En:   0.000D+00 0.000D+00 0.000D+00 0.193D-02 0.998D+00
 Coeff:     -0.108D-01 0.145D-01 0.581D-03 0.194D-03 0.763D-04 0.187D-01
 Coeff:     -0.183D-03 0.915D-01 0.149D+00 0.260D+00 0.476D+00
 Gap=     0.079 Goal=   None    Shift=    0.000
 RMSDP=3.28D-04 MaxDP=3.62D-02 DE=-5.63D-03 OVMax= 4.11D-03

 Cycle  12  Pass 1  IDiag  1:
 RMSU=  7.23D-05    CP:  1.01D+00  7.35D-01  6.32D-01  4.20D-02  1.15D-01
                    CP:  4.49D-01  6.45D-01  8.93D-01  1.39D+00  2.05D+00
                    CP:  1.83D+00
 E= -52169.3193956737     Delta-E=       -0.000353464115 Rises=F Damp=F
 DIIS: error= 7.11D-05 at cycle  12 NSaved=  12.
 NSaved=12 IEnMin=12 EnMin= -52169.3193956737     IErMin=12 ErrMin= 7.11D-05
 ErrMax= 7.11D-05 EMaxC= 1.00D-01 BMatC= 8.00D-05 BMatP= 3.98D-04
 IDIUse=1 WtCom= 1.00D+00 WtEn= 0.00D+00
 Coeff-Com: -0.468D-02 0.625D-02-0.773D-03 0.695D-04 0.219D-03 0.532D-02
 Coeff-Com:  0.165D-02 0.202D-01 0.282D-01 0.776D-01 0.314D+00 0.552D+00
 Coeff:     -0.468D-02 0.625D-02-0.773D-03 0.695D-04 0.219D-03 0.532D-02
 Coeff:      0.165D-02 0.202D-01 0.282D-01 0.776D-01 0.314D+00 0.552D+00
 Gap=     0.079 Goal=   None    Shift=    0.000
 RMSDP=6.90D-04 MaxDP=7.70D-02 DE=-3.53D-04 OVMax= 2.48D-03

 Cycle  13  Pass 1  IDiag  1:
 RMSU=  1.64D-04    CP:  1.02D+00  7.60D-01  6.36D-01  4.18D-02  1.19D-01
                    CP:  4.72D-01  8.39D-01  1.17D+00  2.05D+00  3.00D+00
                    CP:  3.00D+00  2.66D+00
 E= -52169.3194614920     Delta-E=       -0.000065818371 Rises=F Damp=F
 DIIS: error= 9.60D-05 at cycle  13 NSaved=  13.
 NSaved=13 IEnMin=13 EnMin= -52169.3194614920     IErMin=12 ErrMin= 7.11D-05
 ErrMax= 9.60D-05 EMaxC= 1.00D-01 BMatC= 4.07D-05 BMatP= 8.00D-05
 IDIUse=1 WtCom= 1.00D+00 WtEn= 0.00D+00
 Coeff-Com: -0.263D-02 0.351D-02-0.653D-03 0.599D-04 0.151D-03 0.235D-02
 Coeff-Com:  0.148D-02 0.528D-02 0.622D-02 0.311D-01 0.195D+00 0.441D+00
 Coeff-Com:  0.317D+00
 Coeff:     -0.263D-02 0.351D-02-0.653D-03 0.599D-04 0.151D-03 0.235D-02
 Coeff:      0.148D-02 0.528D-02 0.622D-02 0.311D-01 0.195D+00 0.441D+00
 Coeff:      0.317D+00
 Gap=     0.079 Goal=   None    Shift=    0.000
 RMSDP=7.92D-04 MaxDP=9.51D-02 DE=-6.58D-05 OVMax= 1.27D-03

 Cycle  14  Pass 1  IDiag  1:
 RMSU=  1.84D-04    CP:  1.03D+00  7.91D-01  6.40D-01  4.13D-02  1.22D-01
                    CP:  4.96D-01  1.06D+00  1.46D+00  2.74D+00  3.00D+00
                    CP:  3.00D+00  3.00D+00  3.00D+00
 E= -52169.3195087425     Delta-E=       -0.000047250433 Rises=F Damp=F
 DIIS: error= 1.50D-04 at cycle  14 NSaved=  14.
 NSaved=14 IEnMin=14 EnMin= -52169.3195087425     IErMin=12 ErrMin= 7.11D-05
 ErrMax= 1.50D-04 EMaxC= 1.00D-01 BMatC= 3.02D-05 BMatP= 4.07D-05
 IDIUse=1 WtCom= 1.00D+00 WtEn= 0.00D+00
 Coeff-Com: -0.288D-02 0.385D-02-0.885D-03 0.805D-04 0.178D-03 0.211D-02
 Coeff-Com:  0.189D-02 0.280D-02 0.997D-03 0.293D-01 0.237D+00 0.586D+00
 Coeff-Com:  0.524D+00-0.385D+00
 Coeff:     -0.288D-02 0.385D-02-0.885D-03 0.805D-04 0.178D-03 0.211D-02
 Coeff:      0.189D-02 0.280D-02 0.997D-03 0.293D-01 0.237D+00 0.586D+00
 Coeff:      0.524D+00-0.385D+00
 Gap=     0.079 Goal=   None    Shift=    0.000
 RMSDP=9.72D-04 MaxDP=1.14D-01 DE=-4.73D-05 OVMax= 5.94D-04

 Cycle  15  Pass 1  IDiag  1:
 RMSU=  4.61D-05    CP:  1.02D+00  7.54D-01  6.35D-01  4.21D-02  1.19D-01
                    CP:  4.67D-01  7.87D-01  1.10D+00  1.87D+00  3.00D+00
                    CP:  3.00D+00  2.33D+00  4.12D-01 -8.28D-02
 E= -52169.3194796743     Delta-E=        0.000029068135 Rises=F Damp=F
 DIIS: error= 8.46D-05 at cycle  15 NSaved=  15.
 NSaved=15 IEnMin=14 EnMin= -52169.3195087425     IErMin=12 ErrMin= 7.11D-05
 ErrMax= 8.46D-05 EMaxC= 1.00D-01 BMatC= 1.84D-05 BMatP= 3.02D-05
 IDIUse=1 WtCom= 1.00D+00 WtEn= 0.00D+00
 Coeff-Com: -0.150D-02 0.200D-02-0.703D-03 0.332D-04 0.182D-03 0.379D-03
 Coeff-Com:  0.142D-02-0.596D-02-0.993D-02 0.374D-03 0.142D+00 0.441D+00
 Coeff-Com:  0.637D+00-0.113D+01 0.925D+00
 Coeff:     -0.150D-02 0.200D-02-0.703D-03 0.332D-04 0.182D-03 0.379D-03
 Coeff:      0.142D-02-0.596D-02-0.993D-02 0.374D-03 0.142D+00 0.441D+00
 Coeff:      0.637D+00-0.113D+01 0.925D+00
 Gap=     0.079 Goal=   None    Shift=    0.000
 RMSDP=8.56D-04 MaxDP=1.04D-01 DE= 2.91D-05 OVMax= 7.75D-04

 Cycle  16  Pass 1  IDiag  1:
 RMSU=  9.43D-05    CP:  1.01D+00  7.26D-01  6.29D-01  4.27D-02  1.14D-01
                    CP:  4.46D-01  5.47D-01  7.50D-01  1.04D+00  1.20D+00
                    CP:  9.87D-01  5.54D-01 -2.39D-02 -6.39D-02  2.25D+00
 E= -52169.3194738189     Delta-E=        0.000005855443 Rises=F Damp=F
 DIIS: error= 3.87D-05 at cycle  16 NSaved=  16.
 NSaved=16 IEnMin=14 EnMin= -52169.3195087425     IErMin=16 ErrMin= 3.87D-05
 ErrMax= 3.87D-05 EMaxC= 1.00D-01 BMatC= 4.20D-06 BMatP= 1.84D-05
 IDIUse=1 WtCom= 1.00D+00 WtEn= 0.00D+00
 Coeff-Com: -0.374D-03 0.496D-03-0.213D-03 0.191D-04 0.617D-04 0.214D-04
 Coeff-Com:  0.813D-03-0.447D-02-0.636D-02-0.762D-02 0.333D-01 0.143D+00
 Coeff-Com:  0.331D+00-0.883D+00 0.755D+00 0.638D+00
 Coeff:     -0.374D-03 0.496D-03-0.213D-03 0.191D-04 0.617D-04 0.214D-04
 Coeff:      0.813D-03-0.447D-02-0.636D-02-0.762D-02 0.333D-01 0.143D+00
 Coeff:      0.331D+00-0.883D+00 0.755D+00 0.638D+00
 Gap=     0.079 Goal=   None    Shift=    0.000
 RMSDP=2.94D-04 MaxDP=3.66D-02 DE= 5.86D-06 OVMax= 3.71D-04

 Cycle  17  Pass 1  IDiag  1:
 RMSU=  6.84D-05    CP:  1.01D+00  7.19D-01  6.24D-01  4.21D-02  1.10D-01
                    CP:  4.43D-01  4.61D-01  6.40D-01  7.84D-01  6.18D-01
                    CP:  2.83D-01 -3.07D-01 -1.26D-01  1.50D-02  1.73D+00
                    CP:  1.59D+00
 E= -52169.3194732472     Delta-E=        0.000000571687 Rises=F Damp=F
 DIIS: error= 2.70D-05 at cycle  17 NSaved=  17.
 NSaved=17 IEnMin=14 EnMin= -52169.3195087425     IErMin=17 ErrMin= 2.70D-05
 ErrMax= 2.70D-05 EMaxC= 1.00D-01 BMatC= 1.41D-06 BMatP= 4.20D-06
 IDIUse=1 WtCom= 1.00D+00 WtEn= 0.00D+00
 Coeff-Com: -0.769D-04 0.101D-03-0.380D-04 0.638D-05 0.734D-05 0.778D-04
 Coeff-Com:  0.434D-03-0.169D-02-0.263D-02-0.454D-02 0.209D-02 0.327D-01
 Coeff-Com:  0.142D+00-0.538D+00 0.413D+00 0.447D+00 0.509D+00
 Coeff:     -0.769D-04 0.101D-03-0.380D-04 0.638D-05 0.734D-05 0.778D-04
 Coeff:      0.434D-03-0.169D-02-0.263D-02-0.454D-02 0.209D-02 0.327D-01
 Coeff:      0.142D+00-0.538D+00 0.413D+00 0.447D+00 0.509D+00
 Gap=     0.079 Goal=   None    Shift=    0.000
 RMSDP=1.73D-04 MaxDP=1.94D-02 DE= 5.72D-07 OVMax= 1.77D-04

 Cycle  18  Pass 1  IDiag  1:
 RMSU=  3.89D-05    CP:  1.01D+00  7.17D-01  6.20D-01  4.15D-02  1.07D-01
                    CP:  4.41D-01  4.21D-01  5.83D-01  6.55D-01  3.77D-01
                    CP: -4.32D-02 -8.74D-01 -1.99D-01  7.47D-02  1.04D+00
                    CP:  1.85D+00  1.86D+00
 E= -52169.3194731516     Delta-E=        0.000000095650 Rises=F Damp=F
 DIIS: error= 2.01D-05 at cycle  18 NSaved=  18.
 NSaved=18 IEnMin=14 EnMin= -52169.3195087425     IErMin=18 ErrMin= 2.01D-05
 ErrMax= 2.01D-05 EMaxC= 1.00D-01 BMatC= 5.93D-07 BMatP= 1.41D-06
 IDIUse=1 WtCom= 1.00D+00 WtEn= 0.00D+00
 Coeff-Com: -0.499D-04 0.659D-04-0.170D-04-0.531D-06 0.328D-05 0.750D-04
 Coeff-Com:  0.230D-03-0.729D-03-0.133D-02-0.208D-02 0.153D-02 0.182D-01
 Coeff-Com:  0.847D-01-0.367D+00 0.250D+00 0.247D+00 0.358D+00 0.411D+00
 Coeff:     -0.499D-04 0.659D-04-0.170D-04-0.531D-06 0.328D-05 0.750D-04
 Coeff:      0.230D-03-0.729D-03-0.133D-02-0.208D-02 0.153D-02 0.182D-01
 Coeff:      0.847D-01-0.367D+00 0.250D+00 0.247D+00 0.358D+00 0.411D+00
 Gap=     0.079 Goal=   None    Shift=    0.000
 RMSDP=1.21D-04 MaxDP=1.24D-02 DE= 9.56D-08 OVMax= 6.35D-05

 Cycle  19  Pass 1  IDiag  1:
 RMSU=  2.00D-05    CP:  1.01D+00  7.16D-01  6.17D-01  4.12D-02  1.04D-01
                    CP:  4.41D-01  3.97D-01  5.51D-01  5.88D-01  2.52D-01
                    CP: -1.94D-01 -1.24D+00 -2.51D-01  1.15D-01  6.36D-01
                    CP:  2.09D+00  2.54D+00  1.90D+00
 E= -52169.3194732362     Delta-E=       -0.000000084678 Rises=F Damp=F
 DIIS: error= 1.96D-05 at cycle  19 NSaved=  19.
 NSaved=19 IEnMin=14 EnMin= -52169.3195087425     IErMin=19 ErrMin= 1.96D-05
 ErrMax= 1.96D-05 EMaxC= 1.00D-01 BMatC= 4.75D-07 BMatP= 5.93D-07
 IDIUse=1 WtCom= 1.00D+00 WtEn= 0.00D+00
 Coeff-Com: -0.456D-04 0.600D-04-0.148D-04-0.166D-05 0.246D-05 0.819D-04
 Coeff-Com:  0.256D-03-0.813D-03-0.150D-02-0.242D-02 0.766D-03 0.178D-01
 Coeff-Com:  0.901D-01-0.393D+00 0.271D+00 0.277D+00 0.412D+00 0.495D+00
 Coeff-Com: -0.167D+00
 Coeff:     -0.456D-04 0.600D-04-0.148D-04-0.166D-05 0.246D-05 0.819D-04
 Coeff:      0.256D-03-0.813D-03-0.150D-02-0.242D-02 0.766D-03 0.178D-01
 Coeff:      0.901D-01-0.393D+00 0.271D+00 0.277D+00 0.412D+00 0.495D+00
 Coeff:     -0.167D+00
 Gap=     0.079 Goal=   None    Shift=    0.000
 RMSDP=3.98D-05 MaxDP=3.37D-03 DE=-8.47D-08 OVMax= 1.62D-05

 Error on total polarization charges =  0.02982
 SCF Done:  E(RPBE-PBE) =  -52169.3194732     A.U. after   19 cycles
             Convg  =    0.3985D-04             -V/T =  2.0157
 KE= 5.136279374808D+04 PE=-1.725095263413D+05 EE= 4.444601007284D+04
 Leave Link  502 at Sat Jun 15 04:27:31 2019, MaxMem=13421772800 cpu:  145951.0
 (Enter /home/scr/programs/g09/l801.exe)
 Range of M.O.s used for correlation:     1  2264
 NBasis=  2264 NAE=   358 NBE=   358 NFC=     0 NFV=     0
 NROrb=   2264 NOA=   358 NOB=   358 NVA=  1906 NVB=  1906

 **** Warning!!: The largest alpha MO coefficient is  0.71619405D+02


[...]
 Alpha virt. eigenvalues --    2.26309   2.26447   2.26870   2.27150   2.27567
 Alpha virt. eigenvalues --    2.27843   2.28644   2.28678   2.29219   2.29383
 Alpha virt. eigenvalues --    2.29546   2.29668   2.29826   2.30062   2.30216
 Alpha virt. eigenvalues --    2.30284   2.30439   2.30707   2.30923   2.31188
 Alpha virt. eigenvalues --    2.31345   2.31562   2.31806   2.32186   2.32390
 Alpha virt. eigenvalues --    2.32585   2.32799   2.33036   2.33195   2.33497
 Alpha virt. eigenvalues --    2.33728   2.33780   2.34080   2.34209   2.34372
 Alpha virt. eigenvalues --    2.34450   2.34902   2.35212   2.35565   2.36164
 Alpha virt. eigenvalues --    2.36250   2.36679   2.36862   2.37209   2.37681
 Alpha virt. eigenvalues --    2.38236   2.38592   2.38778   2.38985   2.39522
 Alpha virt. eigenvalues --    2.39868   2.40156   2.40758   2.41128   2.41184
 Alpha virt. eigenvalues --    2.41910   2.42179   2.42197   2.42352   2.42483
 Alpha virt. eigenvalues --    2.42728   2.42814   2.43224   2.43531   2.43864
 Alpha virt. eigenvalues --    2.44362   2.44493   2.44633   2.45810   2.46051
 Alpha virt. eigenvalues --    2.46595   2.47235   2.47510   2.47791   2.48433
 Alpha virt. eigenvalues --    2.49274   2.49333   2.50182   2.50399   2.50697
 Alpha virt. eigenvalues --    2.51044   2.51563   2.52184   2.52444   2.53051
 Alpha virt. eigenvalues --    2.53312   2.54153   2.54231   2.54439   2.54966
 Alpha virt. eigenvalues --    2.55178   2.55580   2.55851   2.56085   2.56671
 Alpha virt. eigenvalues --    2.57059   2.58008   2.59107   2.59351   2.59748
 Alpha virt. eigenvalues --    2.59863   2.60222   2.60348   2.60506   2.61041
 Alpha virt. eigenvalues --    2.61398   2.62260   2.62494   2.62760   2.63169
 Alpha virt. eigenvalues --    2.64063   2.66298   2.67153   2.68025   2.68172
 Alpha virt. eigenvalues --    2.68220   2.68907   2.69316   2.69350   2.69880
 Alpha virt. eigenvalues --    2.69930   2.70466   2.70633   2.70996   2.71101
 Alpha virt. eigenvalues --    2.72343   2.72717   2.72992   2.73447   2.74223
 Alpha virt. eigenvalues --    2.74792   2.75896   2.76046   2.76815   2.77102
 Alpha virt. eigenvalues --    2.77409   2.77960   2.78036   2.78060   2.78886
 Alpha virt. eigenvalues --    2.78943   2.79578   2.79834   2.80185   2.80463
 Alpha virt. eigenvalues --    2.83292   2.83765   2.84185   2.84656   2.85191
 Alpha virt. eigenvalues --    2.85696   2.85917   2.86638   2.87068   2.87621
 Alpha virt. eigenvalues --    2.88008   2.88218   2.88585   2.89586   2.89652
 Alpha virt. eigenvalues --    2.90081   2.90630   2.90730   2.91046   2.91464
 Alpha virt. eigenvalues --    2.91574   2.92057   2.92317   2.92572   2.92635
 Alpha virt. eigenvalues --    2.92814   2.93516   2.95048   2.96101   2.96430
 Alpha virt. eigenvalues --    2.96568   2.97157   2.97373   2.97844   2.98561
 Alpha virt. eigenvalues --    2.98953   2.99109   2.99517   2.99844   3.00087
 Alpha virt. eigenvalues --    3.00502   3.00538   3.01201   3.04597   3.05386
 Alpha virt. eigenvalues --    3.07197   3.07774   3.07993   3.08381   3.09270
 Alpha virt. eigenvalues --    3.09518   3.10043   3.10663   3.10839   3.11175
 Alpha virt. eigenvalues --    3.11204   3.11275   3.11757   3.12124   3.12380
 Alpha virt. eigenvalues --    3.12638   3.12896   3.13336   3.13622   3.13790
 Alpha virt. eigenvalues --    3.14096   3.14456   3.14591   3.14628   3.15049
 Alpha virt. eigenvalues --    3.16183   3.16466   3.16732   3.17453   3.17544
 Alpha virt. eigenvalues --    3.17871   3.18062   3.18409   3.18749   3.18974
 Alpha virt. eigenvalues --    3.19019   3.19196   3.19765   3.19842   3.20141
 Alpha virt. eigenvalues --    3.20191   3.20460   3.21029   3.21391   3.22112
 Alpha virt. eigenvalues --    3.22616   3.22863   3.23135   3.23657   3.25198
 Alpha virt. eigenvalues --    3.26439   3.27537   3.27768   3.28426   3.28524
 Alpha virt. eigenvalues --    3.28729   3.29011   3.32157   3.33037   3.33679
 Alpha virt. eigenvalues --    3.34116   3.35712   3.36497   3.37287   3.37841
 Alpha virt. eigenvalues --    3.39529   3.40674   3.45860   3.47071   3.48041
 Alpha virt. eigenvalues --    3.48512   3.48670   3.50376   3.50656   3.50899
 Alpha virt. eigenvalues --    3.52092   3.52878   3.53169   3.53409   3.53993
 Alpha virt. eigenvalues --    3.55264   3.55940   3.56897   3.57479   3.58430
 Alpha virt. eigenvalues --    3.63678   3.64658   3.71554   3.73019   3.85461
 Alpha virt. eigenvalues --    3.87500   3.88751   3.89758   3.91011   3.92131
 Alpha virt. eigenvalues --    3.93190   3.97092   3.98807   3.99583   4.02240
 Alpha virt. eigenvalues --    4.03613   4.16664   4.17283   4.17819   4.18357
 Alpha virt. eigenvalues --    4.19292   4.19496   4.20371   4.21082   4.22282
 Alpha virt. eigenvalues --    4.22910   4.23548   4.24283   4.25198   4.26108
 Alpha virt. eigenvalues --    4.26371   4.26869   4.27293   4.27764   4.28097
 Alpha virt. eigenvalues --    4.28607   4.29324   4.30661   4.35239   4.36820
 Alpha virt. eigenvalues --    4.37823   4.39002   4.39585   4.39709   4.40027
 Alpha virt. eigenvalues --    4.40215   4.41921   4.42925   4.43632   4.44030
 Alpha virt. eigenvalues --    4.44354   4.44604   4.51737   4.52395   4.53543
 Alpha virt. eigenvalues --    4.53910   4.55731   4.56051   4.80198   4.80438
 Alpha virt. eigenvalues --    4.81384   4.81476   4.81539   4.81624   5.46939
 Alpha virt. eigenvalues --    5.48485   5.52792   5.54156   5.66513   5.70121
 Alpha virt. eigenvalues --    5.72651   5.76403   5.85403   5.87752   6.01252
 Alpha virt. eigenvalues --    6.07914   6.68241   6.68496   6.70540   6.71134
 Alpha virt. eigenvalues --    6.71758   6.72176   6.72287   6.72488   6.74158
 Alpha virt. eigenvalues --    6.74591   6.75266   6.75913   6.76386   6.76433
 Alpha virt. eigenvalues --    6.76676   6.76859   6.77391   6.78173   6.78725
 Alpha virt. eigenvalues --    6.78904   6.79648   6.79919   6.81570   6.81916
 Alpha virt. eigenvalues --    6.82604   6.82742   6.83282   6.83364   6.84290
 Alpha virt. eigenvalues --    6.85429   6.86450   6.88065   6.88267   6.88615
 Alpha virt. eigenvalues --    6.89027   6.89250   6.89487   6.90548   6.90791
 Alpha virt. eigenvalues --    6.91875   7.12782   7.13212   7.13499   7.13610
 Alpha virt. eigenvalues --    7.14726   7.15908   7.18825   7.19634   7.20744
 Alpha virt. eigenvalues --    7.21508   7.22955   7.23136   7.72043   7.73584
 Alpha virt. eigenvalues --    7.76020   7.79205   7.80245   7.81041   8.47456
 Alpha virt. eigenvalues --    8.47608   8.47874   8.47924   8.48176   8.48645
 Alpha virt. eigenvalues --    8.49165   8.49427   8.49783   8.50060   8.50092
 Alpha virt. eigenvalues --    8.50576   8.50672   8.51637   8.53943   8.54370
 Alpha virt. eigenvalues --    8.57573   8.58312   8.90045   8.90974   9.82887
 Alpha virt. eigenvalues --    9.83655   9.83898   9.84547   9.84645   9.84877
 Alpha virt. eigenvalues --    9.85140   9.85901   9.86797   9.87576   9.87864
 Alpha virt. eigenvalues --    9.89017   9.90679   9.91431   9.92354   9.93399
 Alpha virt. eigenvalues --    9.94181   9.95052   9.96820   9.97580  10.00428
 Alpha virt. eigenvalues --   10.02563  10.02838  10.03438  10.04277  10.04695
 Alpha virt. eigenvalues --   10.06542  10.07767  10.13317  10.13638  10.15161
 Alpha virt. eigenvalues --   10.16436  10.24755  10.26769  14.19012  14.19577
 Alpha virt. eigenvalues --   15.60570  15.62350  16.74890  16.75519  16.75696
 Alpha virt. eigenvalues --   16.76999  16.82565  16.83801  17.01344  17.02282
 Alpha virt. eigenvalues --   17.03484  17.03505  17.03698  17.03824  17.03840
 Alpha virt. eigenvalues --   17.04043  17.07121  17.07299  17.07644  17.07902
 Alpha virt. eigenvalues --   17.07971  17.08615  17.12821  17.12865  17.13210
 Alpha virt. eigenvalues --   17.13869  17.14136  17.14675  17.15646  17.16487
 Alpha virt. eigenvalues --   17.17186  17.18895  17.20576  17.21019  17.21925
 Alpha virt. eigenvalues --   17.22801  17.23168  17.24512  17.26188  17.26596
 Alpha virt. eigenvalues --   17.34426  17.34504  17.34787  17.35320  17.35993
 Alpha virt. eigenvalues --   17.36041  17.36323  17.36564  17.38758  17.39858
 Alpha virt. eigenvalues --   17.40486  17.41464  20.96536  21.00133  21.09849
 Alpha virt. eigenvalues --   21.11702  21.22983  21.28667  25.45690  25.46850
 Alpha virt. eigenvalues --   25.50468  25.51280  25.60762  25.63111  26.04829
 Alpha virt. eigenvalues --   26.07200  31.64255  31.64362  31.68650  31.68690
 Alpha virt. eigenvalues --   31.71314  31.71644  31.74772  31.75550  31.76342
 Alpha virt. eigenvalues --   31.77913  42.90768  42.90926  42.94385  42.95406
 Alpha virt. eigenvalues --   42.96332  42.97763  43.00179  43.05232  43.09463
 Alpha virt. eigenvalues --   43.10247  61.88554  61.89102  62.97395  62.99072
 Alpha virt. eigenvalues --   78.07063  78.07719  78.07781  78.08826  78.14178
 Alpha virt. eigenvalues --   78.15352  78.31003  78.32445  82.08564  82.11436
 Alpha virt. eigenvalues --   86.09653  86.12556  86.21023  86.22427  86.31822
 Alpha virt. eigenvalues --   86.35818  89.29473  89.29536  89.29748  89.29871
 Alpha virt. eigenvalues --   89.29940  89.29992  89.33221  89.33582  89.33776
 Alpha virt. eigenvalues --   89.34358  89.34493  89.35324  89.38708  89.38928
 Alpha virt. eigenvalues --   89.39174  89.39486  89.39792  89.40423  89.40644
 Alpha virt. eigenvalues --   89.41150  89.42049  89.42923  89.44977  89.45760
 Alpha virt. eigenvalues --   89.48136  89.48463  89.48824  89.50289  89.52447
 Alpha virt. eigenvalues --   89.52627  89.60558  89.61516  89.61796  89.62206
 Alpha virt. eigenvalues --   89.63438  89.63591  89.63926  89.64196  89.65852
 Alpha virt. eigenvalues --   89.66600  89.66952  89.67819 121.80987 121.81793
 Alpha virt. eigenvalues --  121.84632 121.85335 121.91832 121.93515 239.15493
 Alpha virt. eigenvalues --  239.16996 257.20400 257.23024 332.21661 332.22230
 Alpha virt. eigenvalues --  428.70829 428.73087 428.79904 428.80976 428.88096
 Alpha virt. eigenvalues --  428.91249 431.68797 431.69500 431.69564 431.70638
 Alpha virt. eigenvalues --  431.76422 431.77652 431.93958 431.95367 590.18444
 Alpha virt. eigenvalues --  590.19069 590.21261 590.21807 590.26806 590.28118
 Alpha virt. eigenvalues --  772.88855 772.91293 839.55613 839.569612068.49587
 Alpha virt. eigenvalues -- 2068.518422529.933672529.945835495.302615495.32346
 Alpha virt. eigenvalues -- **************************************************
 Alpha virt. eigenvalues -- **********
          Condensed to atoms (all electrons):
 Mulliken atomic charges:
              1
     1  Pt   0.200573
     2  Cl  -0.420011
     3  Cl  -0.353589
     4  Sn   0.320002
     5  Cl  -0.134108
     6  Cl  -0.156973
     7  Cl  -0.139605
     8  Pt   0.175267
     9  Sn   0.325221
    10  Cl  -0.138171
    11  Cl  -0.165654
    12  Cl  -0.143913
    13  P    1.073799
    14  P    1.078472
    15  C   -0.787678
    16  C    0.245281
    17  C    0.630037
    18  C   -0.264723
    19  H    0.078772
    20  C   -0.279532
    21  H    0.073099
    22  C   -0.197830
    23  H    0.103848
    24  H    0.097609
    25  C   -0.788465
    26  C    0.396055
    27  C    0.493305
    28  C   -0.304588
    29  H    0.097969
    30  C   -0.388089
    31  H    0.074432
    32  C   -0.176743
    33  H    0.102046
    34  H    0.099795
    35  C   -1.039474
    36  C    0.613442
    37  C    0.382856
    38  C   -0.224011
    39  H    0.084775
    40  C   -0.384894
    41  H    0.098994
    42  C   -0.141086
    43  H    0.098060
    44  H    0.098477
    45  C   -0.656190
    46  C    0.323619
    47  C    0.537551
    48  C   -0.478207
    49  H    0.098315
    50  C   -0.245118
    51  H    0.076965
    52  C   -0.188917
    53  H    0.097542
    54  H    0.099806
    55  C   -1.033892
    56  C    0.566492
    57  C    0.364726
    58  C   -0.217955
    59  H    0.083679
    60  C   -0.356009
    61  H    0.097374
    62  C   -0.149512
    63  H    0.101371
    64  H    0.101886
    65  C   -0.730433
    66  C    0.316719
    67  C    0.472053
    68  C   -0.210974
    69  H    0.105316
    70  C   -0.449759
    71  H    0.074677
    72  C   -0.167433
    73  H    0.104028
    74  H    0.101039
    75  C   -0.331226
    76  H    0.146515
    77  H    0.154936
    78  H    0.146565
    79  C   -0.306596
    80  H    0.146516
    81  H    0.152912
    82  H    0.138897
    83  C   -0.318093
    84  H    0.139911
    85  H    0.155859
    86  H    0.146598
    87  C   -0.327834
    88  H    0.148027
    89  H    0.153812
    90  H    0.144171
    91  C   -0.317530
    92  H    0.155741
    93  H    0.140630
    94  H    0.145653
    95  C   -0.306944
    96  H    0.156478
    97  H    0.142651
    98  H    0.140547
 Sum of Mulliken atomic charges =   0.00000
 Mulliken charges with hydrogens summed into heavy atoms:
              1
     1  Pt   0.200573
     2  Cl  -0.420011
     3  Cl  -0.353589
     4  Sn   0.320002
     5  Cl  -0.134108
     6  Cl  -0.156973
     7  Cl  -0.139605
     8  Pt   0.175267
     9  Sn   0.325221
    10  Cl  -0.138171
    11  Cl  -0.165654
    12  Cl  -0.143913
    13  P    1.073799
    14  P    1.078472
    15  C   -0.787678
    16  C    0.324052
    17  C    0.703136
    18  C   -0.160875
    20  C   -0.181923
    22  C   -0.197830
    25  C   -0.788465
    26  C    0.494023
    27  C    0.567737
    28  C   -0.202542
    30  C   -0.288294
    32  C   -0.176743
    35  C   -1.039474
    36  C    0.698217
    37  C    0.481850
    38  C   -0.125952
    40  C   -0.286416
    42  C   -0.141086
    45  C   -0.656190
    46  C    0.421934
    47  C    0.614516
    48  C   -0.380665
    50  C   -0.145311
    52  C   -0.188917
    55  C   -1.033892
    56  C    0.650172
    57  C    0.462100
    58  C   -0.116584
    60  C   -0.254124
    62  C   -0.149512
    65  C   -0.730433
    66  C    0.422034
    67  C    0.546730
    68  C   -0.106945
    70  C   -0.348721
    72  C   -0.167433
    75  C    0.116790
    79  C    0.131728
    83  C    0.124274
    87  C    0.118175
    91  C    0.124495
    95  C    0.132733
 Sum of Mulliken charges with hydrogens summed into heavy atoms =   0.00000
 Electronic spatial extent (au):  <R**2>=          65025.8095
 Charge=              0.0000 electrons
 Dipole moment (field-independent basis, Debye):
    X=             -0.4880    Y=              0.1262    Z=             -0.3347  Tot=              0.6050
 Quadrupole moment (field-independent basis, Debye-Ang):
   XX=           -394.6485   YY=           -509.5011   ZZ=           -428.7731
   XY=             89.0990   XZ=             -1.4250   YZ=             -0.4828
 Traceless Quadrupole moment (field-independent basis, Debye-Ang):
   XX=             49.6591   YY=            -65.1936   ZZ=             15.5345
   XY=             89.0990   XZ=             -1.4250   YZ=             -0.4828
 Octapole moment (field-independent basis, Debye-Ang**2):
  XXX=            -31.7082  YYY=             -2.8420  ZZZ=             29.1704  XYY=            -10.8438
  XXY=             23.0356  XXZ=           -148.5094  XZZ=             23.4057  YZZ=             -7.8350
  YYZ=            -74.1877  XYZ=             33.4935
 Hexadecapole moment (field-independent basis, Debye-Ang**3):
 XXXX=         -43940.7294 YYYY=         -20120.3779 ZZZZ=         -12190.8784 XXXY=            660.0957
 XXXZ=            150.6769 YYYX=            840.8515 YYYZ=             47.8636 ZZZX=           -123.1240
 ZZZY=            -31.4994 XXYY=         -12429.9644 XXZZ=          -8368.6284 YYZZ=          -5925.6039
 XXYZ=            -79.4576 YYXZ=             -6.7228 ZZXY=           -149.5945
 N-N= 2.453140304712D+04 E-N=-1.725095247199D+05  KE= 5.136279374808D+04
 Calculating spin-rotation constants.
 Leave Link  601 at Sat Jun 15 06:30:30 2019, MaxMem=13421772800 cpu:   98593.8
 (Enter /home/scr/programs/g09/l9999.exe)
 1\1\GINC-NEQC33\SP\RPBEPBE\Gen\C42H42Cl8P2Pt2Sn2\GUEST1\15-Jun-2019\0\
 \#PBEPBE/gen scf=(maxcycle=500,conver=4) NMR=GIAO Scrf=(solvent=Dichlo
 romethane)\\estrutura 46\\0,1\Pt,0,1.792951,-0.312169,-0.347641\Cl,0,0
 .256411,1.577508,-0.971096\Cl,0,-0.262889,-1.692548,-0.703731\Sn,0,2.9
 96454,-2.528228,0.195569\Cl,0,2.63518,-4.200785,-1.490106\Cl,0,2.23108
 1,-3.634577,2.184433\Cl,0,5.375753,-2.706419,0.452772\Pt,0,-1.810026,0
 .271395,-0.398654\Sn,0,-2.916867,2.540938,0.141621\Cl,0,-2.658558,4.19
 8434,-1.577842\Cl,0,-1.920611,3.611065,2.046352\Cl,0,-5.2467,2.821794,
 0.651521\P,0,3.683001,0.947438,-0.059826\P,0,-3.70954,-0.94478,-0.0136
 81\C,0,4.394574,0.681185,1.611111\C,0,5.772826,0.64713,1.880389\C,0,3.
 495545,0.544908,2.684001\C,0,6.232402,0.502366,3.188945\H,0,6.499908,0
 .713658,1.072172\C,0,3.966189,0.408083,3.991485\H,0,2.417919,0.535254,
 2.499128\C,0,5.341965,0.391435,4.270977\H,0,7.310295,0.469757,3.372122
 \H,0,3.246925,0.305992,4.80851\C,0,4.919435,0.640043,-1.380502\C,0,6.1
 32527,1.354743,-1.430728\C,0,4.620595,-0.243158,-2.432225\C,0,7.03048,
 1.151259,-2.478725\H,0,6.381694,2.09578,-0.666823\C,0,5.514519,-0.4213
 16,-3.490688\H,0,3.671781,-0.78179,-2.44005\C,0,6.740648,0.26237,-3.52
 9976\H,0,7.971235,1.708737,-2.489072\H,0,5.245407,-1.102301,-4.303863\
 C,0,3.36886,2.751499,-0.18103\C,0,3.211945,3.33081,-1.453496\C,0,3.259
 168,3.570493,0.953155\C,0,2.963905,4.695681,-1.581109\H,0,3.285986,2.7
 15969,-2.353218\C,0,3.00917,4.937683,0.813204\H,0,3.374199,3.15142,1.9
 53881\C,0,2.86107,5.527252,-0.45187\H,0,2.846278,5.125097,-2.579752\H,
 0,2.930655,5.558212,1.710005\C,0,-4.258697,-0.7693,1.723482\C,0,-5.562
 274,-0.419967,2.102988\C,0,-3.292673,-0.975575,2.728309\C,0,-5.893681,
 -0.299831,3.455504\H,0,-6.32546,-0.2166,1.351076\C,0,-3.636764,-0.8621
 58,4.073911\H,0,-2.261741,-1.219028,2.458615\C,0,-4.94569,-0.525487,4.
 464851\H,0,-6.913829,-0.015361,3.72828\H,0,-2.871445,-1.029919,4.83603
 2\C,0,-3.453047,-2.740718,-0.297838\C,0,-3.108257,-3.1638,-1.593922\C,
 0,-3.616493,-3.704898,0.708305\C,0,-2.925364,-4.516969,-1.869957\H,0,-
 2.97316,-2.434369,-2.395243\C,0,-3.434277,-5.059029,0.419361\H,0,-3.89
 0325,-3.408846,1.722218\C,0,-3.084815,-5.491435,-0.870403\H,0,-2.64890
 1,-4.822929,-2.88276\H,0,-3.567273,-5.793829,1.217647\C,0,-5.076148,-0
 .549575,-1.171675\C,0,-6.307107,-1.23004,-1.073499\C,0,-4.885028,0.338
 851,-2.23976\C,0,-7.322762,-0.985497,-1.996692\H,0,-6.478292,-1.963399
 ,-0.280748\C,0,-5.904076,0.564383,-3.168482\H,0,-3.92886,0.848564,-2.3
 67572\C,0,-7.143968,-0.084342,-3.060677\H,0,-8.2731,-1.518565,-1.89516
 3\H,0,-5.723746,1.256229,-3.997763\C,0,7.717176,0.053475,-4.658623\H,0
 ,8.31002,0.961493,-4.847995\H,0,8.427027,-0.756679,-4.415301\H,0,7.204
 327,-0.229818,-5.590714\C,0,5.856778,0.263078,5.681589\H,0,6.64561,-0.
 502296,5.750715\H,0,6.301474,1.213564,6.022936\H,0,5.054059,-0.002594,
 6.383955\C,0,-5.314699,-0.423444,5.923102\H,0,-6.244548,0.147658,6.064
 256\H,0,-5.472529,-1.427537,6.357841\H,0,-4.515093,0.05841,6.507595\C,
 0,-8.252255,0.187072,-4.044888\H,0,-8.847187,-0.717294,-4.238395\H,0,-
 8.943404,0.953348,-3.653257\H,0,-7.859796,0.559817,-5.001869\C,0,-2.90
 6153,-6.956558,-1.174423\H,0,-3.884458,-7.449478,-1.311543\H,0,-2.3256
 87,-7.108818,-2.095522\H,0,-2.394616,-7.478644,-0.349739\C,0,2.627177,
 7.008472,-0.600962\H,0,3.582343,7.539028,-0.757848\H,0,1.988496,7.2297
 4,-1.4693\H,0,2.157686,7.436313,0.296401\\Version=EM64L-G09RevA.02\Sta
 te=1-A\HF=-52169.3194732\RMSD=3.985e-05\Dipole=-0.1919751,0.0496538,-0
 .1316943\Quadrupole=36.9203264,-48.4698148,11.5494884,66.2429451,-1.05
 94491,-0.3589499\PG=C01 [X(C42H42Cl8P2Pt2Sn2)]\\@


 I think that all right-thinking people in this
 country are sick and tired of being told that
 ordinary, decent people are fed up in this country
 with being sick and tired.  I'm certainly not!
 But I'm sick and tired of being told that I am!
                               -- Monty Python
 Job cpu time:  4 days  8 hours 50 minutes 48.8 seconds.
 File lengths (MBytes):  RWF=   3852 Int=      0 D2E=      0 Chk=    278 Scr=      1
 Normal termination of Gaussian 09 at Sat Jun 15 06:30:31 2019.
