 Entering Gaussian System, Link 0=g09
 Input=estrutura44.com
 Output=estrutura44.log
 Initial command:
 /home/scr/programs/g09/l1.exe /home/scr/guest1/Gau-23322.inp -scrdir=/home/scr/guest1/
 Entering Link 1 = /home/scr/programs/g09/l1.exe PID=     23323.
  
 Copyright (c) 1988,1990,1992,1993,1995,1998,2003,2009, Gaussian, Inc.
                  All Rights Reserved.
  
 This is part of the Gaussian(R) 09 program.  It is based on
 the Gaussian(R) 03 system (copyright 2003, Gaussian, Inc.),
 the Gaussian(R) 98 system (copyright 1998, Gaussian, Inc.),
 the Gaussian(R) 94 system (copyright 1995, Gaussian, Inc.),
 the Gaussian 92(TM) system (copyright 1992, Gaussian, Inc.),
 the Gaussian 90(TM) system (copyright 1990, Gaussian, Inc.),
 the Gaussian 88(TM) system (copyright 1988, Gaussian, Inc.),
 the Gaussian 86(TM) system (copyright 1986, Carnegie Mellon
 University), and the Gaussian 82(TM) system (copyright 1983,
 Carnegie Mellon University). Gaussian is a federally registered
 trademark of Gaussian, Inc.
  
 This software contains proprietary and confidential information,
 including trade secrets, belonging to Gaussian, Inc.
  
 This software is provided under written license and may be
 used, copied, transmitted, or stored only in accord with that
 written license.
  
 The following legend is applicable only to US Government
 contracts under FAR:
  
                    RESTRICTED RIGHTS LEGEND
  
 Use, reproduction and disclosure by the US Government is
 subject to restrictions as set forth in subparagraphs (a)
 and (c) of the Commercial Computer Software - Restricted
 Rights clause in FAR 52.227-19.
  
 Gaussian, Inc.
 340 Quinnipiac St., Bldg. 40, Wallingford CT 06492
  
  
 ---------------------------------------------------------------
 Warning -- This program may not be used in any manner that
 competes with the business of Gaussian, Inc. or will provide
 assistance to any competitor of Gaussian, Inc.  The licensee
 of this program is prohibited from giving any competitor of
 Gaussian, Inc. access to this program.  By using this program,
 the user acknowledges that Gaussian, Inc. is engaged in the
 business of creating and licensing software in the field of
 computational chemistry and represents and warrants to the
 licensee that it is not a competitor of Gaussian, Inc. and that
 it will not use this program in any manner prohibited above.
 ---------------------------------------------------------------
  

 Cite this work as:
 Gaussian 09, Revision A.02,
 M. J. Frisch, G. W. Trucks, H. B. Schlegel, G. E. Scuseria, 
 M. A. Robb, J. R. Cheeseman, G. Scalmani, V. Barone, B. Mennucci, 
 G. A. Petersson, H. Nakatsuji, M. Caricato, X. Li, H. P. Hratchian, 
 A. F. Izmaylov, J. Bloino, G. Zheng, J. L. Sonnenberg, M. Hada, 
 M. Ehara, K. Toyota, R. Fukuda, J. Hasegawa, M. Ishida, T. Nakajima, 
 Y. Honda, O. Kitao, H. Nakai, T. Vreven, J. A. Montgomery, Jr., 
 J. E. Peralta, F. Ogliaro, M. Bearpark, J. J. Heyd, E. Brothers, 
 K. N. Kudin, V. N. Staroverov, R. Kobayashi, J. Normand, 
 K. Raghavachari, A. Rendell, J. C. Burant, S. S. Iyengar, J. Tomasi, 
 M. Cossi, N. Rega, J. M. Millam, M. Klene, J. E. Knox, J. B. Cross, 
 V. Bakken, C. Adamo, J. Jaramillo, R. Gomperts, R. E. Stratmann, 
 O. Yazyev, A. J. Austin, R. Cammi, C. Pomelli, J. W. Ochterski, 
 R. L. Martin, K. Morokuma, V. G. Zakrzewski, G. A. Voth, 
 P. Salvador, J. J. Dannenberg, S. Dapprich, A. D. Daniels, 
 O. Farkas, J. B. Foresman, J. V. Ortiz, J. Cioslowski, 
 and D. J. Fox, Gaussian, Inc., Wallingford CT, 2009.
 
 ******************************************
 Gaussian 09:  EM64L-G09RevA.02 11-Jun-2009
                15-Jun-2019 
 ******************************************
 %mem=100Gb
 %nproc=32
 Will use up to   32 processors via shared memory.
 ----------------------------------------------------------------------
 #PBEPBE/gen scf=(maxcycle=500,conver=4) NMR=GIAO Scrf=(solvent=Dichlor
 omethane)
 ----------------------------------------------------------------------
 1/38=1/1;
 2/12=2,17=6,18=5,40=1/2;
 3/5=7,11=2,16=1,25=1,30=1,70=2201,72=9,74=1009/1,2,8,3;
 4//1;
 5/5=2,6=4,7=500,38=5,53=9/2;
 8/6=1,10=90,11=11/1;
 10/13=100,45=16/2;
 6/7=2,8=2,9=2,10=2,28=1/1;
 99/9=1/99;
 Leave Link    1 at Sat Jun 15 00:54:54 2019, MaxMem=13421772800 cpu:       3.0
 (Enter /home/scr/programs/g09/l101.exe)
 ------------
 estrutura 44
 ------------
 Symbolic Z-matrix:
 Charge = -1 Multiplicity = 1
 Pt                    0.00486  -0.36702  -0.13438 
 H                    -0.05679  -0.28623  -1.71797 
 Sn                   -2.46129   0.55783  -0.604 
 Sn                    1.87955   1.53031  -0.52159 
 Cl                   -3.69215  -0.88119  -2.20945 
 Cl                   -2.90705   2.72477  -1.7075 
 Cl                   -4.27437   0.68685   1.11041 
 Cl                    1.63218   3.97603  -0.85809 
 Cl                    3.65406   1.61539   1.25318 
 Cl                    3.35662   1.0615   -2.4652 
 P                     0.0087   -0.3133    2.31474 
 P                     0.67409  -2.58464  -0.65819 
 C                     0.97102  -2.7194   -2.49104 
 H                    -0.01325  -2.52874  -2.95157 
 C                     2.22206  -3.25017   0.11778 
 H                     2.01187  -3.36013   1.19305 
 C                    -0.64467  -3.81828  -0.20961 
 H                    -1.51969  -3.53158  -0.8171 
 C                    -1.47672  -1.17833   3.02072 
 H                    -2.34833  -0.69651   2.5481 
 H                    -1.43604  -2.19618   2.59773 
 C                    -1.65757  -1.23936   4.53915 
 H                    -2.61045  -1.73689   4.77808 
 H                    -0.85853  -1.81125   5.03211 
 H                    -1.6928   -0.23875   4.99564 
 C                     1.4979   -1.11742   3.09997 
 H                     2.33002  -0.91309   2.40987 
 C                     0.0137    1.38851   3.06361 
 H                    -0.07934   1.26587   4.15392 
 H                     1.0269    1.78042   2.87731 
 C                    -1.03903   2.36797   2.54345 
 H                    -1.00019   3.30203   3.12625 
 H                    -0.85654   2.6321    1.49189 
 H                    -2.06136   1.97025   2.61742 
 C                     1.61373  -3.98392  -3.06736 
 H                     0.99509  -4.88205  -2.92395 
 H                     1.75615  -3.85618  -4.15247 
 H                     2.60636  -4.18121  -2.63173 
 C                    -0.35896  -5.31967  -0.32448 
 H                    -0.16263  -5.63237  -1.35934 
 H                     0.49967  -5.62631   0.29276 
 H                    -1.23444  -5.88817   0.02831 
 C                     3.4761   -2.40114  -0.10682 
 H                     3.38221  -1.40248   0.34289 
 H                     4.35232  -2.89063   0.34815 
 H                     3.69528  -2.25943  -1.17605 
 C                     1.91391  -0.69606   4.51388 
 H                     2.76662  -1.31139   4.84287 
 H                     2.24457   0.3524    4.53984 
 H                     1.11222  -0.81836   5.25644 
 H                     2.37383  -4.26908  -0.27559 
 H                     1.30289  -2.20171   3.05661 
 H                    -0.91247  -3.57082   0.83 
 H                     1.58656  -1.83754  -2.73326 
 
 NAtoms=     54 NQM=     54 NQMF=      0 NMic=      0 NMicF=      0 NTot=     54.
                    Isotopes and Nuclear Properties:
 (Nuclear quadrupole moments (NQMom) in fm**2, nuclear magnetic moments (NMagM)
  in nuclear magnetons)

  Atom         1           2           3           4           5           6           7           8           9          10
 IAtWgt=         195           1         118         118          35          35          35          35          35          35
 AtmWgt= 194.9648000   1.0078250 117.9018000 117.9018000  34.9688527  34.9688527  34.9688527  34.9688527  34.9688527  34.9688527
 NucSpn=           1           1           0           0           3           3           3           3           3           3
 AtZEff=   0.0000000   0.0000000   0.0000000   0.0000000   0.0000000   0.0000000   0.0000000   0.0000000   0.0000000   0.0000000
 NQMom=    0.0000000   0.0000000   0.0000000   0.0000000  -8.1650000  -8.1650000  -8.1650000  -8.1650000  -8.1650000  -8.1650000
 NMagM=    0.6095000   2.7928460   0.0000000   0.0000000   0.8218740   0.8218740   0.8218740   0.8218740   0.8218740   0.8218740

  Atom        11          12          13          14          15          16          17          18          19          20
 IAtWgt=          31          31          12           1          12           1          12           1          12           1
 AtmWgt=  30.9737634  30.9737634  12.0000000   1.0078250  12.0000000   1.0078250  12.0000000   1.0078250  12.0000000   1.0078250
 NucSpn=           1           1           0           1           0           1           0           1           0           1
 AtZEff=   0.0000000   0.0000000   0.0000000   0.0000000   0.0000000   0.0000000   0.0000000   0.0000000   0.0000000   0.0000000
 NQMom=    0.0000000   0.0000000   0.0000000   0.0000000   0.0000000   0.0000000   0.0000000   0.0000000   0.0000000   0.0000000
 NMagM=    1.1316000   1.1316000   0.0000000   2.7928460   0.0000000   2.7928460   0.0000000   2.7928460   0.0000000   2.7928460

  Atom        21          22          23          24          25          26          27          28          29          30
 IAtWgt=           1          12           1           1           1          12           1          12           1           1
 AtmWgt=   1.0078250  12.0000000   1.0078250   1.0078250   1.0078250  12.0000000   1.0078250  12.0000000   1.0078250   1.0078250
 NucSpn=           1           0           1           1           1           0           1           0           1           1
 AtZEff=   0.0000000   0.0000000   0.0000000   0.0000000   0.0000000   0.0000000   0.0000000   0.0000000   0.0000000   0.0000000
 NQMom=    0.0000000   0.0000000   0.0000000   0.0000000   0.0000000   0.0000000   0.0000000   0.0000000   0.0000000   0.0000000
 NMagM=    2.7928460   0.0000000   2.7928460   2.7928460   2.7928460   0.0000000   2.7928460   0.0000000   2.7928460   2.7928460

  Atom        31          32          33          34          35          36          37          38          39          40
 IAtWgt=          12           1           1           1          12           1           1           1          12           1
 AtmWgt=  12.0000000   1.0078250   1.0078250   1.0078250  12.0000000   1.0078250   1.0078250   1.0078250  12.0000000   1.0078250
 NucSpn=           0           1           1           1           0           1           1           1           0           1
 AtZEff=   0.0000000   0.0000000   0.0000000   0.0000000   0.0000000   0.0000000   0.0000000   0.0000000   0.0000000   0.0000000
 NQMom=    0.0000000   0.0000000   0.0000000   0.0000000   0.0000000   0.0000000   0.0000000   0.0000000   0.0000000   0.0000000
 NMagM=    0.0000000   2.7928460   2.7928460   2.7928460   0.0000000   2.7928460   2.7928460   2.7928460   0.0000000   2.7928460

  Atom        41          42          43          44          45          46          47          48          49          50
 IAtWgt=           1           1          12           1           1           1          12           1           1           1
 AtmWgt=   1.0078250   1.0078250  12.0000000   1.0078250   1.0078250   1.0078250  12.0000000   1.0078250   1.0078250   1.0078250
 NucSpn=           1           1           0           1           1           1           0           1           1           1
 AtZEff=   0.0000000   0.0000000   0.0000000   0.0000000   0.0000000   0.0000000   0.0000000   0.0000000   0.0000000   0.0000000
 NQMom=    0.0000000   0.0000000   0.0000000   0.0000000   0.0000000   0.0000000   0.0000000   0.0000000   0.0000000   0.0000000
 NMagM=    2.7928460   2.7928460   0.0000000   2.7928460   2.7928460   2.7928460   0.0000000   2.7928460   2.7928460   2.7928460

  Atom        51          52          53          54
 IAtWgt=           1           1           1           1
 AtmWgt=   1.0078250   1.0078250   1.0078250   1.0078250
 NucSpn=           1           1           1           1
 AtZEff=   0.0000000   0.0000000   0.0000000   0.0000000
 NQMom=    0.0000000   0.0000000   0.0000000   0.0000000
 NMagM=    2.7928460   2.7928460   2.7928460   2.7928460
 Leave Link  101 at Sat Jun 15 00:54:54 2019, MaxMem=13421772800 cpu:       2.8
 (Enter /home/scr/programs/g09/l202.exe)
 Stoichiometry    C12H31Cl6P2PtSn2(1-)
 Framework group  C1[X(C12H31Cl6P2PtSn2)]
 Deg. of freedom   156
 Full point group                 C1      NOp   1
 Largest Abelian subgroup         C1      NOp   1
 Largest concise Abelian subgroup C1      NOp   1
                         Standard orientation:                         
 ---------------------------------------------------------------------
 Center     Atomic      Atomic             Coordinates (Angstroms)
 Number     Number       Type             X           Y           Z
 ---------------------------------------------------------------------
      1         78           0       -0.004856    0.367016   -0.134379
      2          1           0        0.056791    0.286230   -1.717974
      3         50           0        2.461288   -0.557831   -0.604004
      4         50           0       -1.879548   -1.530310   -0.521588
      5         17           0        3.692152    0.881194   -2.209447
      6         17           0        2.907054   -2.724770   -1.707498
      7         17           0        4.274370   -0.686845    1.110405
      8         17           0       -1.632177   -3.976033   -0.858091
      9         17           0       -3.654062   -1.615391    1.253181
     10         17           0       -3.356624   -1.061496   -2.465196
     11         15           0       -0.008700    0.313300    2.314740
     12         15           0       -0.674087    2.584636   -0.658186
     13          6           0       -0.971019    2.719402   -2.491036
     14          1           0        0.013246    2.528738   -2.951567
     15          6           0       -2.222059    3.250166    0.117778
     16          1           0       -2.011867    3.360130    1.193052
     17          6           0        0.644667    3.818279   -0.209607
     18          1           0        1.519691    3.531581   -0.817104
     19          6           0        1.476723    1.178327    3.020723
     20          1           0        2.348332    0.696506    2.548100
     21          1           0        1.436042    2.196181    2.597727
     22          6           0        1.657570    1.239364    4.539151
     23          1           0        2.610446    1.736892    4.778083
     24          1           0        0.858531    1.811251    5.032112
     25          1           0        1.692801    0.238750    4.995635
     26          6           0       -1.497904    1.117423    3.099972
     27          1           0       -2.330018    0.913093    2.409873
     28          6           0       -0.013700   -1.388510    3.063615
     29          1           0        0.079339   -1.265871    4.153923
     30          1           0       -1.026903   -1.780421    2.877313
     31          6           0        1.039031   -2.367965    2.543448
     32          1           0        1.000195   -3.302032    3.126253
     33          1           0        0.856543   -2.632103    1.491885
     34          1           0        2.061362   -1.970254    2.617422
     35          6           0       -1.613734    3.983921   -3.067355
     36          1           0       -0.995086    4.882052   -2.923947
     37          1           0       -1.756152    3.856184   -4.152475
     38          1           0       -2.606363    4.181215   -2.631732
     39          6           0        0.358956    5.319665   -0.324483
     40          1           0        0.162629    5.632370   -1.359341
     41          1           0       -0.499672    5.626305    0.292755
     42          1           0        1.234443    5.888167    0.028312
     43          6           0       -3.476097    2.401142   -0.106823
     44          1           0       -3.382212    1.402480    0.342892
     45          1           0       -4.352322    2.890633    0.348150
     46          1           0       -3.695279    2.259435   -1.176047
     47          6           0       -1.913909    0.696055    4.513882
     48          1           0       -2.766621    1.311390    4.842874
     49          1           0       -2.244572   -0.352400    4.539836
     50          1           0       -1.112217    0.818356    5.256444
     51          1           0       -2.373830    4.269084   -0.275587
     52          1           0       -1.302890    2.201714    3.056611
     53          1           0        0.912466    3.570816    0.830001
     54          1           0       -1.586556    1.837537   -2.733258
 ---------------------------------------------------------------------
 Rotational constants (GHZ):      0.0976770      0.0806862      0.0724372
 Leave Link  202 at Sat Jun 15 00:54:54 2019, MaxMem=13421772800 cpu:       1.6
 (Enter /home/scr/programs/g09/l301.exe)
 General basis read from cards:  (5D, 7F)
 Centers:   2 14 16 18 20 21 23 24 25 27 29 30 32 33 34 36 37 38 40 41
 Centers:  42 44 45 46 48 49 50 51 52 53 54
 S 5 1.00
     Exponent=  2.8295215633D+02 Coefficients=  4.3000000000D-04
     Exponent=  8.7062201949D+01 Coefficients=  5.1000000000D-04
     Exponent=  2.6788369830D+01 Coefficients=  6.1600000000D-03
     Exponent=  8.2425753324D+00 Coefficients=  1.3030000000D-02
     Exponent=  2.5361770254D+00 Coefficients=  9.9490000000D-02
 S 1 1.00
     Exponent=  7.8036216165D-01 Coefficients=  1.0000000000D+00
 S 1 1.00
     Exponent=  2.4011143435D-01 Coefficients=  1.0000000000D+00
 P 1 1.00
     Exponent=  8.8150000000D-01 Coefficients=  1.0000000000D+00
 P 1 1.00
     Exponent=  1.7989200000D-01 Coefficients=  1.0000000000D+00
 ****
 Centers:  13 15 17 19 22 26 28 31 35 39 43 47
 S 6 1.00
     Exponent=  8.8461235339D+03 Coefficients=  5.3000000000D-04
     Exponent=  2.9487078446D+03 Coefficients=  7.7000000000D-04
     Exponent=  9.8290261488D+02 Coefficients=  4.0500000000D-03
     Exponent=  3.2763420496D+02 Coefficients=  1.4030000000D-02
     Exponent=  1.0921140165D+02 Coefficients=  5.3450000000D-02
     Exponent=  3.6403800551D+01 Coefficients=  1.7027000000D-01
 S 1 1.00
     Exponent=  1.2134600184D+01 Coefficients=  1.0000000000D+00
 S 1 1.00
     Exponent=  4.0448667279D+00 Coefficients=  1.0000000000D+00
 S 1 1.00
     Exponent=  1.3482889093D+00 Coefficients=  1.0000000000D+00
 S 1 1.00
     Exponent=  4.4942963643D-01 Coefficients=  1.0000000000D+00
 S 1 1.00
     Exponent=  1.4980987881D-01 Coefficients=  1.0000000000D+00
 P 4 1.00
     Exponent=  3.7294093393D+01 Coefficients=  3.9600000000D-03
     Exponent=  1.1475105659D+01 Coefficients=  1.8890000000D-02
     Exponent=  3.5308017414D+00 Coefficients=  9.4610000000D-02
     Exponent=  1.0864005358D+00 Coefficients=  3.1889000000D-01
 P 1 1.00
     Exponent=  3.3427708794D-01 Coefficients=  1.0000000000D+00
 P 1 1.00
     Exponent=  1.0285448860D-01 Coefficients=  1.0000000000D+00
 D 1 1.00
     Exponent=  4.7750000000D-01 Coefficients=  1.0000000000D+00
 D 1 1.00
     Exponent=  1.1998000000D-01 Coefficients=  1.0000000000D+00
 ****
 Centers:  11 12
 S 7 1.00
     Exponent=  5.9538004301D+04 Coefficients=  9.5000000000D-04
     Exponent=  2.1650183382D+04 Coefficients=  6.1000000000D-04
     Exponent=  7.8727939572D+03 Coefficients=  3.7500000000D-03
     Exponent=  2.8628341663D+03 Coefficients=  9.6300000000D-03
     Exponent=  1.0410306059D+03 Coefficients=  3.2430000000D-02
     Exponent=  3.7855658397D+02 Coefficients=  9.9500000000D-02
     Exponent=  1.3765693962D+02 Coefficients=  2.6570000000D-01
 S 1 1.00
     Exponent=  5.0057068954D+01 Coefficients=  1.0000000000D+00
 S 1 1.00
     Exponent=  1.8202570529D+01 Coefficients=  1.0000000000D+00
 S 1 1.00
     Exponent=  6.6191165560D+00 Coefficients=  1.0000000000D+00
 S 1 1.00
     Exponent=  2.4069514749D+00 Coefficients=  1.0000000000D+00
 S 1 1.00
     Exponent=  8.7525508178D-01 Coefficients=  1.0000000000D+00
 S 1 1.00
     Exponent=  3.1827457519D-01 Coefficients=  1.0000000000D+00
 S 1 1.00
     Exponent=  1.1573620916D-01 Coefficients=  1.0000000000D+00
 S 1 1.00
     Exponent=  4.2085894240D-02 Coefficients=  1.0000000000D+00
 P 5 1.00
     Exponent=  4.8799672315D+02 Coefficients=  2.1600000000D-03
     Exponent=  1.6266557438D+02 Coefficients=  9.7900000000D-03
     Exponent=  5.4221858128D+01 Coefficients=  5.4850000000D-02
     Exponent=  1.8073952709D+01 Coefficients=  2.1770000000D-01
     Exponent=  6.0246509031D+00 Coefficients=  4.8978000000D-01
 P 1 1.00
     Exponent=  2.0082169677D+00 Coefficients=  1.0000000000D+00
 P 1 1.00
     Exponent=  6.6940565590D-01 Coefficients=  1.0000000000D+00
 P 1 1.00
     Exponent=  2.2313521863D-01 Coefficients=  1.0000000000D+00
 P 1 1.00
     Exponent=  7.4378406211D-02 Coefficients=  1.0000000000D+00
 P 1 1.00
     Exponent=  2.4792802070D-02 Coefficients=  1.0000000000D+00
 D 1 1.00
     Exponent=  3.5395000000D-01 Coefficients=  1.0000000000D+00
 D 1 1.00
     Exponent=  8.9098000000D-02 Coefficients=  1.0000000000D+00
 ****
 Centers:   5  6  7  8  9 10
 S 7 1.00
     Exponent=  7.7142817164D+04 Coefficients=  1.0600000000D-03
     Exponent=  2.8051933514D+04 Coefficients=  6.4000000000D-04
     Exponent=  1.0200703096D+04 Coefficients=  3.9600000000D-03
     Exponent=  3.7093465804D+03 Coefficients=  9.8300000000D-03
     Exponent=  1.3488533020D+03 Coefficients=  3.2690000000D-02
     Exponent=  4.9049210981D+02 Coefficients=  9.9520000000D-02
     Exponent=  1.7836076720D+02 Coefficients=  2.6555000000D-01
 S 1 1.00
     Exponent=  6.4858460801D+01 Coefficients=  1.0000000000D+00
 S 1 1.00
     Exponent=  2.3584894837D+01 Coefficients=  1.0000000000D+00
 S 1 1.00
     Exponent=  8.5763253951D+00 Coefficients=  1.0000000000D+00
 S 1 1.00
     Exponent=  3.1186637801D+00 Coefficients=  1.0000000000D+00
 S 1 1.00
     Exponent=  1.1340595564D+00 Coefficients=  1.0000000000D+00
 S 1 1.00
     Exponent=  4.1238529323D-01 Coefficients=  1.0000000000D+00
 S 1 1.00
     Exponent=  1.4995828845D-01 Coefficients=  1.0000000000D+00
 S 1 1.00
     Exponent=  5.4530286708D-02 Coefficients=  1.0000000000D+00
 P 5 1.00
     Exponent=  6.9498536057D+02 Coefficients=  2.0000000000D-03
     Exponent=  2.3166178686D+02 Coefficients=  8.9500000000D-03
     Exponent=  7.7220595619D+01 Coefficients=  5.1130000000D-02
     Exponent=  2.5740198540D+01 Coefficients=  2.1011000000D-01
     Exponent=  8.5800661799D+00 Coefficients=  4.9738000000D-01
 P 1 1.00
     Exponent=  2.8600220600D+00 Coefficients=  1.0000000000D+00
 P 1 1.00
     Exponent=  9.5334068665D-01 Coefficients=  1.0000000000D+00
 P 1 1.00
     Exponent=  3.1778022888D-01 Coefficients=  1.0000000000D+00
 P 1 1.00
     Exponent=  1.0592674296D-01 Coefficients=  1.0000000000D+00
 P 1 1.00
     Exponent=  3.5308914320D-02 Coefficients=  1.0000000000D+00
 D 1 1.00
     Exponent=  5.5696000000D-01 Coefficients=  1.0000000000D+00
 D 1 1.00
     Exponent=  1.5619100000D-01 Coefficients=  1.0000000000D+00
 ****
 Centers:   3  4
 S 8 1.00
     Exponent=  7.5448214551D+05 Coefficients=  4.4300000000D-03
     Exponent=  3.3532539800D+05 Coefficients=  1.9800000000D-03
     Exponent=  1.4903351022D+05 Coefficients=  9.0500000000D-03
     Exponent=  6.6237115655D+04 Coefficients=  4.8700000000D-03
     Exponent=  2.9438718069D+04 Coefficients=  2.0770000000D-02
     Exponent=  1.3083874697D+04 Coefficients=  3.2900000000D-02
     Exponent=  5.8150554210D+03 Coefficients=  7.7010000000D-02
     Exponent=  2.5844690760D+03 Coefficients=  1.5160000000D-01
 S 1 1.00
     Exponent=  1.1486529227D+03 Coefficients=  1.0000000000D+00
 S 1 1.00
     Exponent=  5.1051241008D+02 Coefficients=  1.0000000000D+00
 S 1 1.00
     Exponent=  2.2689440448D+02 Coefficients=  1.0000000000D+00
 S 1 1.00
     Exponent=  1.0084195755D+02 Coefficients=  1.0000000000D+00
 S 1 1.00
     Exponent=  4.4818647798D+01 Coefficients=  1.0000000000D+00
 S 1 1.00
     Exponent=  1.9919399021D+01 Coefficients=  1.0000000000D+00
 S 1 1.00
     Exponent=  8.8530662317D+00 Coefficients=  1.0000000000D+00
 S 1 1.00
     Exponent=  3.9346961030D+00 Coefficients=  1.0000000000D+00
 S 1 1.00
     Exponent=  1.7487538235D+00 Coefficients=  1.0000000000D+00
 S 1 1.00
     Exponent=  7.7722392158D-01 Coefficients=  1.0000000000D+00
 S 1 1.00
     Exponent=  3.4543285403D-01 Coefficients=  1.0000000000D+00
 S 1 1.00
     Exponent=  1.5352571290D-01 Coefficients=  1.0000000000D+00
 S 1 1.00
     Exponent=  6.8233650180D-02 Coefficients=  1.0000000000D+00
 S 1 1.00
     Exponent=  1.3478251887D-02 Coefficients=  1.0000000000D+00
 P 5 1.00
     Exponent=  1.0090658304D+04 Coefficients=  2.7500000000D-03
     Exponent=  4.0362633217D+03 Coefficients=  4.1800000000D-03
     Exponent=  1.6145053287D+03 Coefficients=  2.0890000000D-02
     Exponent=  6.4580213147D+02 Coefficients=  7.1370000000D-02
     Exponent=  2.5832085259D+02 Coefficients=  2.2613000000D-01
 P 1 1.00
     Exponent=  1.0332834104D+02 Coefficients=  1.0000000000D+00
 P 1 1.00
     Exponent=  4.1331336414D+01 Coefficients=  1.0000000000D+00
 P 1 1.00
     Exponent=  1.6532534566D+01 Coefficients=  1.0000000000D+00
 P 1 1.00
     Exponent=  6.6130138263D+00 Coefficients=  1.0000000000D+00
 P 1 1.00
     Exponent=  2.6452055305D+00 Coefficients=  1.0000000000D+00
 P 1 1.00
     Exponent=  1.0580822122D+00 Coefficients=  1.0000000000D+00
 P 1 1.00
     Exponent=  4.2323288488D-01 Coefficients=  1.0000000000D+00
 P 1 1.00
     Exponent=  1.6929315395D-01 Coefficients=  1.0000000000D+00
 P 1 1.00
     Exponent=  6.7717261581D-02 Coefficients=  1.0000000000D+00
 P 1 1.00
     Exponent=  2.7086904632D-02 Coefficients=  1.0000000000D+00
 P 1 1.00
     Exponent=  1.0834761853D-02 Coefficients=  1.0000000000D+00
 D 4 1.00
     Exponent=  5.5430250651D+02 Coefficients=  4.3700000000D-03
     Exponent=  2.0156454782D+02 Coefficients=  2.5110000000D-02
     Exponent=  7.3296199207D+01 Coefficients=  1.3316000000D-01
     Exponent=  2.6653163348D+01 Coefficients=  3.8900000000D-01
 D 1 1.00
     Exponent=  9.6920593993D+00 Coefficients=  1.0000000000D+00
 D 1 1.00
     Exponent=  3.5243852361D+00 Coefficients=  1.0000000000D+00
 D 1 1.00
     Exponent=  1.2815946313D+00 Coefficients=  1.0000000000D+00
 D 1 1.00
     Exponent=  4.6603441139D-01 Coefficients=  1.0000000000D+00
 D 1 1.00
     Exponent=  1.6946705869D-01 Coefficients=  1.0000000000D+00
 F 1 1.00
     Exponent=  1.3140000000D+00 Coefficients=  1.0000000000D+00
 F 1 1.00
     Exponent=  1.9993000000D-01 Coefficients=  1.0000000000D+00
 ****
 Centers:   1
 S 9 1.00
     Exponent=  2.1644816090D+06 Coefficients=  1.2320000000D-02
     Exponent=  1.0822408045D+06 Coefficients=  1.2970000000D-02
     Exponent=  5.4112040224D+05 Coefficients=  2.6370000000D-02
     Exponent=  2.7056020112D+05 Coefficients=  9.0400000000D-03
     Exponent=  1.3528010056D+05 Coefficients=  3.4980000000D-02
     Exponent=  6.7640050280D+04 Coefficients=  1.2220000000D-02
     Exponent=  3.3820025140D+04 Coefficients=  6.0520000000D-02
     Exponent=  1.6910012570D+04 Coefficients=  6.4930000000D-02
     Exponent=  8.4550062850D+03 Coefficients=  1.3819000000D-01
 S 1 1.00
     Exponent=  4.2275031425D+03 Coefficients=  1.0000000000D+00
 S 1 1.00
     Exponent=  2.1137515713D+03 Coefficients=  1.0000000000D+00
 S 1 1.00
     Exponent=  1.0568757856D+03 Coefficients=  1.0000000000D+00
 S 1 1.00
     Exponent=  5.2843789281D+02 Coefficients=  1.0000000000D+00
 S 1 1.00
     Exponent=  2.6421894641D+02 Coefficients=  1.0000000000D+00
 S 1 1.00
     Exponent=  1.3210947320D+02 Coefficients=  1.0000000000D+00
 S 1 1.00
     Exponent=  6.6054736602D+01 Coefficients=  1.0000000000D+00
 S 1 1.00
     Exponent=  3.3027368301D+01 Coefficients=  1.0000000000D+00
 S 1 1.00
     Exponent=  1.6513684150D+01 Coefficients=  1.0000000000D+00
 S 1 1.00
     Exponent=  8.2568420752D+00 Coefficients=  1.0000000000D+00
 S 1 1.00
     Exponent=  4.1284210376D+00 Coefficients=  1.0000000000D+00
 S 1 1.00
     Exponent=  2.0642105188D+00 Coefficients=  1.0000000000D+00
 S 1 1.00
     Exponent=  1.0321052594D+00 Coefficients=  1.0000000000D+00
 S 1 1.00
     Exponent=  5.1605262970D-01 Coefficients=  1.0000000000D+00
 S 1 1.00
     Exponent=  2.5802631485D-01 Coefficients=  1.0000000000D+00
 S 1 1.00
     Exponent=  1.2901315743D-01 Coefficients=  1.0000000000D+00
 S 1 1.00
     Exponent=  6.4506578713D-02 Coefficients=  1.0000000000D+00
 P 7 1.00
     Exponent=  3.2357915258D+04 Coefficients=  5.0200000000D-03
     Exponent=  1.4381295670D+04 Coefficients=  2.0200000000D-03
     Exponent=  6.3916869645D+03 Coefficients=  1.8070000000D-02
     Exponent=  2.8407497620D+03 Coefficients=  3.6620000000D-02
     Exponent=  1.2625554498D+03 Coefficients=  1.1172000000D-01
     Exponent=  5.6113575545D+02 Coefficients=  2.5586000000D-01
     Exponent=  2.4939366909D+02 Coefficients=  4.2608000000D-01
 P 1 1.00
     Exponent=  1.1084163071D+02 Coefficients=  1.0000000000D+00
 P 1 1.00
     Exponent=  4.9262946981D+01 Coefficients=  1.0000000000D+00
 P 1 1.00
     Exponent=  2.1894643103D+01 Coefficients=  1.0000000000D+00
 P 1 1.00
     Exponent=  9.7309524900D+00 Coefficients=  1.0000000000D+00
 P 1 1.00
     Exponent=  4.3248677733D+00 Coefficients=  1.0000000000D+00
 P 1 1.00
     Exponent=  1.9221634548D+00 Coefficients=  1.0000000000D+00
 P 1 1.00
     Exponent=  8.5429486881D-01 Coefficients=  1.0000000000D+00
 P 1 1.00
     Exponent=  3.7968660836D-01 Coefficients=  1.0000000000D+00
 P 1 1.00
     Exponent=  1.6874960372D-01 Coefficients=  1.0000000000D+00
 P 1 1.00
     Exponent=  7.4999823874D-02 Coefficients=  1.0000000000D+00
 P 1 1.00
     Exponent=  3.3333255055D-02 Coefficients=  1.0000000000D+00
 D 5 1.00
     Exponent=  1.9119003508D+03 Coefficients=  4.3300000000D-03
     Exponent=  7.6476014031D+02 Coefficients=  1.7780000000D-02
     Exponent=  3.0590405613D+02 Coefficients=  8.9710000000D-02
     Exponent=  1.2236162245D+02 Coefficients=  3.1123000000D-01
     Exponent=  4.8944648980D+01 Coefficients=  5.3206000000D-01
 D 1 1.00
     Exponent=  1.9577859592D+01 Coefficients=  1.0000000000D+00
 D 1 1.00
     Exponent=  7.8311438368D+00 Coefficients=  1.0000000000D+00
 D 1 1.00
     Exponent=  3.1324575347D+00 Coefficients=  1.0000000000D+00
 D 1 1.00
     Exponent=  1.2529830139D+00 Coefficients=  1.0000000000D+00
 D 1 1.00
     Exponent=  5.0119320556D-01 Coefficients=  1.0000000000D+00
 D 1 1.00
     Exponent=  2.0047728222D-01 Coefficients=  1.0000000000D+00
 D 1 1.00
     Exponent=  8.0190912889D-02 Coefficients=  1.0000000000D+00
 D 1 1.00
     Exponent=  3.2076365156D-02 Coefficients=  1.0000000000D+00
 F 4 1.00
     Exponent=  8.2289680979D+01 Coefficients=  6.1870000000D-02
     Exponent=  2.9923520356D+01 Coefficients=  2.4823000000D-01
     Exponent=  1.0881280130D+01 Coefficients=  4.9956000000D-01
     Exponent=  3.9568291380D+00 Coefficients=  4.0380000000D-01
 F 1 1.00
     Exponent=  1.4388469593D+00 Coefficients=  1.0000000000D+00
 F 1 1.00
     Exponent=  5.2321707610D-01 Coefficients=  1.0000000000D+00
 G 1 1.00
     Exponent=  2.6700000000D+00 Coefficients=  1.0000000000D+00
 G 1 1.00
     Exponent=  9.0960000000D-01 Coefficients=  1.0000000000D+00
 ****
 Ernie: Thresh=  0.10000D-02 Tol=  0.10000D-05 Strict=F.
 There are  1203 symmetry adapted basis functions of A   symmetry.
 Integral buffers will be    131072 words long.
 Raffenetti 2 integral format.
 Two-electron integral symmetry is turned on.
  1203 basis functions,  1887 primitive gaussians,  1297 cartesian basis functions
   207 alpha electrons      207 beta electrons
       nuclear repulsion energy     10158.4313299228 Hartrees.
 IExCor= 1009 DFT=T Ex=PBE Corr=PBE ExCW=0 ScaHFX=  0.000000
 ScaDFX=  1.000000  1.000000  1.000000  1.000000 ScalE2=  1.000000  1.000000
 IRadAn=      0 IRanWt=     -1 IRanGd=            0 ICorTp=0
 NAtoms=   54 NActive=   54 NUniq=   54 SFac= 7.50D-01 NAtFMM=   80 NAOKFM=F Big=F
 ------------------------------------------------------------------------------
 Polarizable Continuum Model (PCM)
 =================================
 Model                : PCM.
 Atomic radii         : UFF (Universal Force Field).
 Polarization charges : Total charges.
 Charge compensation  : None.
 Solution method      : Matrix inversion.
 Cavity type          : Scaled VdW (van der Waals Surface) (Alpha=1.100).
 Cavity algorithm     : GePol (No added spheres)
                        Default sphere list used, NSphG=   54.
                        Lebedev-Laikov grids with approx.  5.0 points / Ang**2.
                        Smoothing algorithm: Karplus/York (Gamma=1.0000).
                        Polarization charges: spherical gaussians, with
                                              point-specific exponents (IZeta= 3).
                        Self-potential: point-specific (ISelfS= 7).
                        Self-field    : sphere-specific E.n sum rule (ISelfD= 2).
 Solvent              : Dichloromethane, Eps=   8.930000 Eps(inf)=   2.028346
 ------------------------------------------------------------------------------
 GePol: Number of generator spheres                  =      54
 GePol: Total number of spheres                      =      54
 GePol: Number of exposed spheres                    =      54 (100.00%)
 GePol: Number of points                             =    4188
 GePol: Average weight of points                     =       0.14
 GePol: Minimum weight of points                     =   0.76D-11
 GePol: Maximum weight of points                     =    0.21616
 GePol: Number of points with low weight             =     276
 GePol: Fraction of low-weight points (<1% of avg)   =       6.59%
 GePol: Cavity surface area                          =    587.367 Ang**2
 GePol: Cavity volume                                =    703.364 Ang**3
 Leave Link  301 at Sat Jun 15 00:54:55 2019, MaxMem=13421772800 cpu:       8.0
 (Enter /home/scr/programs/g09/l302.exe)
 NPDir=0 NMtPBC=     1 NCelOv=     1 NCel=       1 NClECP=     1 NCelD=      1
         NCelK=      1 NCelE2=     1 NClLst=     1 CellRange=     0.0.
 One-electron integrals computed using PRISM.
 NBasis=  1203 RedAO= T  NBF=  1203
 NBsUse=  1203 1.00D-06 NBFU=  1203
 Precomputing XC quadrature grid using
 IXCGrd= 2 IRadAn=           0 IRanWt=          -1 IRanGd=           0 AccXCQ= 1.00D-10.
 Defaulting to unpruned grid for atomic number  78.
 Defaulting to unpruned grid for atomic number  50.
 NRdTot=    3576 NPtTot=      490812 NUsed=      516559 NTot=      516591
 NSgBfM=  1131  1131  1131  1131  1131 NAtAll=    54    54.
 Leave Link  302 at Sat Jun 15 00:55:04 2019, MaxMem=13421772800 cpu:     282.3
 (Enter /home/scr/programs/g09/l308.exe)
 Leave Link  308 at Sat Jun 15 00:55:06 2019, MaxMem=13421772800 cpu:      78.4
 (Enter /home/scr/programs/g09/l303.exe)
 DipDrv:  MaxL=1.
 Leave Link  303 at Sat Jun 15 00:55:08 2019, MaxMem=13421772800 cpu:      38.2
 (Enter /home/scr/programs/g09/l401.exe)
 Harris functional with IExCor= 1009 diagonalized for initial guess.
 ExpMin= 1.08D-02 ExpMax= 2.16D+06 ExpMxC= 2.16D+06 IAcc=4 IRadAn=         0 AccDes= 0.00D+00
 HarFok:  IExCor= 1009 AccDes= 0.00D+00 IRadAn=         0 IDoV= 1
 ScaDFX=  1.000000  1.000000  1.000000  1.000000
 Defaulting to unpruned grid for atomic number  78.
 Defaulting to unpruned grid for atomic number  78.
 Defaulting to unpruned grid for atomic number  78.
 Defaulting to unpruned grid for atomic number  78.
 Defaulting to unpruned grid for atomic number  78.
 Defaulting to unpruned grid for atomic number  78.
 Defaulting to unpruned grid for atomic number  78.
 Defaulting to unpruned grid for atomic number  78.
 Defaulting to unpruned grid for atomic number  78.
 Defaulting to unpruned grid for atomic number  78.
 Defaulting to unpruned grid for atomic number  78.
 Defaulting to unpruned grid for atomic number  78.
 Defaulting to unpruned grid for atomic number  78.
 Defaulting to unpruned grid for atomic number  78.
 Defaulting to unpruned grid for atomic number  78.
 Defaulting to unpruned grid for atomic number  78.
 Defaulting to unpruned grid for atomic number  78.
 Defaulting to unpruned grid for atomic number  78.
 Defaulting to unpruned grid for atomic number  78.
 Defaulting to unpruned grid for atomic number  78.
 Defaulting to unpruned grid for atomic number  78.
 Defaulting to unpruned grid for atomic number  78.
 Defaulting to unpruned grid for atomic number  78.
 Defaulting to unpruned grid for atomic number  78.
 Defaulting to unpruned grid for atomic number  78.
 Defaulting to unpruned grid for atomic number  78.
 Defaulting to unpruned grid for atomic number  78.
 Defaulting to unpruned grid for atomic number  78.
 Defaulting to unpruned grid for atomic number  78.
 Defaulting to unpruned grid for atomic number  78.
 Defaulting to unpruned grid for atomic number  78.
 Defaulting to unpruned grid for atomic number  78.
 FoFCou: FMM=F IPFlag=           0 FMFlag=      100000 FMFlg1=           0
         NFxFlg=           0 DoJE=T BraDBF=F KetDBF=T FulRan=T
         Omega=  0.000000  0.000000  1.000000  0.000000  0.000000 ICntrl=     500 IOpCl=  0
         NMat0=    1 NMatS0=    1 NMatT0=    0 NMatD0=    1 NMtDS0=    0 NMtDT0=    0
         I1Cent=           4 NGrid=           0.
 Petite list used in FoFCou.
 Harris En= -33006.3332584122    
 Initial guess orbital symmetries:
       Occupied  (A) (A) (A) (A) (A) (A) (A) (A) (A) (A) (A) (A)
                 (A) (A) (A) (A) (A) (A) (A) (A) (A) (A) (A) (A)
                 (A) (A) (A) (A) (A) (A) (A) (A) (A) (A) (A) (A)
                 (A) (A) (A) (A) (A) (A) (A) (A) (A) (A) (A) (A)
                 (A) (A) (A) (A) (A) (A) (A) (A) (A) (A) (A) (A)
                 (A) (A) (A) (A) (A) (A) (A) (A) (A) (A) (A) (A)
                 (A) (A) (A) (A) (A) (A) (A) (A) (A) (A) (A) (A)
                 (A) (A) (A) (A) (A) (A) (A) (A) (A) (A) (A) (A)
                 (A) (A) (A) (A) (A) (A) (A) (A) (A) (A) (A) (A)
                 (A) (A) (A) (A) (A) (A) (A) (A) (A) (A) (A) (A)
                 (A) (A) (A) (A) (A) (A) (A) (A) (A) (A) (A) (A)
                 (A) (A) (A) (A) (A) (A) (A) (A) (A) (A) (A) (A)
                 (A) (A) (A) (A) (A) (A) (A) (A) (A) (A) (A) (A)
                 (A) (A) (A) (A) (A) (A) (A) (A) (A) (A) (A) (A)
                 (A) (A) (A) (A) (A) (A) (A) (A) (A) (A) (A) (A)
                 (A) (A) (A) (A) (A) (A) (A) (A) (A) (A) (A) (A)
                 (A) (A) (A) (A) (A) (A) (A) (A) (A) (A) (A) (A)
                 (A) (A) (A)
       Virtual   (A) (A) (A) (A) (A) (A) (A) (A) (A) (A) (A) (A)
                 (A) (A) (A) (A) (A) (A) (A) (A) (A) (A) (A) (A)
                 (A) (A) (A) (A) (A) (A) (A) (A) (A) (A) (A) (A)
                 (A) (A) (A) (A) (A) (A) (A) (A) (A) (A) (A) (A)
                 (A) (A) (A) (A) (A) (A) (A) (A) (A) (A) (A) (A)
                 (A) (A) (A) (A) (A) (A) (A) (A) (A) (A) (A) (A)
                 (A) (A) (A) (A) (A) (A) (A) (A) (A) (A) (A) (A)
                 (A) (A) (A) (A) (A) (A) (A) (A) (A) (A) (A) (A)
                 (A) (A) (A) (A) (A) (A) (A) (A) (A) (A) (A) (A)
                 (A) (A) (A) (A) (A) (A) (A) (A) (A) (A) (A) (A)
                 (A) (A) (A) (A) (A) (A) (A) (A) (A) (A) (A) (A)
                 (A) (A) (A) (A) (A) (A) (A) (A) (A) (A) (A) (A)
                 (A) (A) (A) (A) (A) (A) (A) (A) (A) (A) (A) (A)
                 (A) (A) (A) (A) (A) (A) (A) (A) (A) (A) (A) (A)
                 (A) (A) (A) (A) (A) (A) (A) (A) (A) (A) (A) (A)
                 (A) (A) (A) (A) (A) (A) (A) (A) (A) (A) (A) (A)
                 (A) (A) (A) (A) (A) (A) (A) (A) (A) (A) (A) (A)
                 (A) (A) (A) (A) (A) (A) (A) (A) (A) (A) (A) (A)
                 (A) (A) (A) (A) (A) (A) (A) (A) (A) (A) (A) (A)
                 (A) (A) (A) (A) (A) (A) (A) (A) (A) (A) (A) (A)
                 (A) (A) (A) (A) (A) (A) (A) (A) (A) (A) (A) (A)
                 (A) (A) (A) (A) (A) (A) (A) (A) (A) (A) (A) (A)
                 (A) (A) (A) (A) (A) (A) (A) (A) (A) (A) (A) (A)
                 (A) (A) (A) (A) (A) (A) (A) (A) (A) (A) (A) (A)
                 (A) (A) (A) (A) (A) (A) (A) (A) (A) (A) (A) (A)
                 (A) (A) (A) (A) (A) (A) (A) (A) (A) (A) (A) (A)
                 (A) (A) (A) (A) (A) (A) (A) (A) (A) (A) (A) (A)
                 (A) (A) (A) (A) (A) (A) (A) (A) (A) (A) (A) (A)
                 (A) (A) (A) (A) (A) (A) (A) (A) (A) (A) (A) (A)
                 (A) (A) (A) (A) (A) (A) (A) (A) (A) (A) (A) (A)
                 (A) (A) (A) (A) (A) (A) (A) (A) (A) (A) (A) (A)
                 (A) (A) (A) (A) (A) (A) (A) (A) (A) (A) (A) (A)
                 (A) (A) (A) (A) (A) (A) (A) (A) (A) (A) (A) (A)
                 (A) (A) (A) (A) (A) (A) (A) (A) (A) (A) (A) (A)
                 (A) (A) (A) (A) (A) (A) (A) (A) (A) (A) (A) (A)
                 (A) (A) (A) (A) (A) (A) (A) (A) (A) (A) (A) (A)
                 (A) (A) (A) (A) (A) (A) (A) (A) (A) (A) (A) (A)
                 (A) (A) (A) (A) (A) (A) (A) (A) (A) (A) (A) (A)
                 (A) (A) (A) (A) (A) (A) (A) (A) (A) (A) (A) (A)
                 (A) (A) (A) (A) (A) (A) (A) (A) (A) (A) (A) (A)
                 (A) (A) (A) (A) (A) (A) (A) (A) (A) (A) (A) (A)
                 (A) (A) (A) (A) (A) (A) (A) (A) (A) (A) (A) (A)
                 (A) (A) (A) (A) (A) (A) (A) (A) (A) (A) (A) (A)
                 (A) (A) (A) (A) (A) (A) (A) (A) (A) (A) (A) (A)
                 (A) (A) (A) (A) (A) (A) (A) (A) (A) (A) (A) (A)
                 (A) (A) (A) (A) (A) (A) (A) (A) (A) (A) (A) (A)
                 (A) (A) (A) (A) (A) (A) (A) (A) (A) (A) (A) (A)
                 (A) (A) (A) (A) (A) (A) (A) (A) (A) (A) (A) (A)
                 (A) (A) (A) (A) (A) (A) (A) (A) (A) (A) (A) (A)
                 (A) (A) (A) (A) (A) (A) (A) (A) (A) (A) (A) (A)
                 (A) (A) (A) (A) (A) (A) (A) (A) (A) (A) (A) (A)
                 (A) (A) (A) (A) (A) (A) (A) (A) (A) (A) (A) (A)
                 (A) (A) (A) (A) (A) (A) (A) (A) (A) (A) (A) (A)
                 (A) (A) (A) (A) (A) (A) (A) (A) (A) (A) (A) (A)
                 (A) (A) (A) (A) (A) (A) (A) (A) (A) (A) (A) (A)
                 (A) (A) (A) (A) (A) (A) (A) (A) (A) (A) (A) (A)
                 (A) (A) (A) (A) (A) (A) (A) (A) (A) (A) (A) (A)
                 (A) (A) (A) (A) (A) (A) (A) (A) (A) (A) (A) (A)
                 (A) (A) (A) (A) (A) (A) (A) (A) (A) (A) (A) (A)
                 (A) (A) (A) (A) (A) (A) (A) (A) (A) (A) (A) (A)
                 (A) (A) (A) (A) (A) (A) (A) (A) (A) (A) (A) (A)
                 (A) (A) (A) (A) (A) (A) (A) (A) (A) (A) (A) (A)
                 (A) (A) (A) (A) (A) (A) (A) (A) (A) (A) (A) (A)
                 (A) (A) (A) (A) (A) (A) (A) (A) (A) (A) (A) (A)
                 (A) (A) (A) (A) (A) (A) (A) (A) (A) (A) (A) (A)
                 (A) (A) (A) (A) (A) (A) (A) (A) (A) (A) (A) (A)
                 (A) (A) (A) (A) (A) (A) (A) (A) (A) (A) (A) (A)
                 (A) (A) (A) (A) (A) (A) (A) (A) (A) (A) (A) (A)
                 (A) (A) (A) (A) (A) (A) (A) (A) (A) (A) (A) (A)
                 (A) (A) (A) (A) (A) (A) (A) (A) (A) (A) (A) (A)
                 (A) (A) (A) (A) (A) (A) (A) (A) (A) (A) (A) (A)
                 (A) (A) (A) (A) (A) (A) (A) (A) (A) (A) (A) (A)
                 (A) (A) (A) (A) (A) (A) (A) (A) (A) (A) (A) (A)
                 (A) (A) (A) (A) (A) (A) (A) (A) (A) (A) (A) (A)
                 (A) (A) (A) (A) (A) (A) (A) (A) (A) (A) (A) (A)
                 (A) (A) (A) (A) (A) (A) (A) (A) (A) (A) (A) (A)
                 (A) (A) (A) (A) (A) (A) (A) (A) (A) (A) (A) (A)
                 (A) (A) (A) (A) (A) (A) (A) (A) (A) (A) (A) (A)
                 (A) (A) (A) (A) (A) (A) (A) (A) (A) (A) (A) (A)
                 (A) (A) (A) (A) (A) (A) (A) (A) (A) (A) (A) (A)
                 (A) (A) (A) (A) (A) (A) (A) (A) (A) (A) (A) (A)
                 (A) (A) (A) (A) (A) (A) (A) (A) (A) (A) (A) (A)
                 (A) (A) (A) (A) (A) (A) (A) (A) (A) (A) (A) (A)
 The electronic state of the initial guess is 1-A.
 Leave Link  401 at Sat Jun 15 00:55:20 2019, MaxMem=13421772800 cpu:     411.6
 (Enter /home/scr/programs/g09/l502.exe)
 Closed shell SCF:
 Requested convergence on RMS density matrix=1.00D-04 within 500 cycles.
 Requested convergence on MAX density matrix=1.00D-02.
 Requested convergence on             energy=1.00D-02.
 No special actions if energy rises.
 Using DIIS extrapolation, IDIIS=  1040.
 Integral symmetry usage will be decided dynamically.
       516060 words used for storage of precomputed grid.
 IEnd=     5867443 IEndB=     5867443 NGot= 13421772800 MDV= 13417839864
 LenX= 13417839864 LenY= 13416156358
 Fock matrices will be formed incrementally for  20 cycles.

 Cycle   1  Pass 1  IDiag  1:
 FoFCou: FMM=F IPFlag=           0 FMFlag=      100000 FMFlg1=           0
         NFxFlg=           0 DoJE=T BraDBF=F KetDBF=F FulRan=T
         Omega=  0.000000  0.000000  1.000000  0.000000  0.000000 ICntrl=     500 IOpCl=  0
         NMat0=    1 NMatS0=    1 NMatT0=    0 NMatD0=    1 NMtDS0=    0 NMtDT0=    0
         I1Cent=           0 NGrid=           0.
 Symmetry not used in FoFCou.
 Defaulting to unpruned grid for atomic number  78.
 Defaulting to unpruned grid for atomic number  78.
 Defaulting to unpruned grid for atomic number  78.
 Defaulting to unpruned grid for atomic number  78.
 Defaulting to unpruned grid for atomic number  78.
 Defaulting to unpruned grid for atomic number  78.
 Defaulting to unpruned grid for atomic number  78.
 Defaulting to unpruned grid for atomic number  78.
 Defaulting to unpruned grid for atomic number  78.
 Defaulting to unpruned grid for atomic number  78.
 Defaulting to unpruned grid for atomic number  78.
 Defaulting to unpruned grid for atomic number  78.
 Defaulting to unpruned grid for atomic number  78.
 Defaulting to unpruned grid for atomic number  78.
 Defaulting to unpruned grid for atomic number  78.
 Defaulting to unpruned grid for atomic number  78.
 Defaulting to unpruned grid for atomic number  78.
 Defaulting to unpruned grid for atomic number  78.
 Defaulting to unpruned grid for atomic number  78.
 Defaulting to unpruned grid for atomic number  78.
 Defaulting to unpruned grid for atomic number  78.
 Defaulting to unpruned grid for atomic number  78.
 Defaulting to unpruned grid for atomic number  78.
 Defaulting to unpruned grid for atomic number  78.
 Defaulting to unpruned grid for atomic number  78.
 Defaulting to unpruned grid for atomic number  78.
 Defaulting to unpruned grid for atomic number  78.
 Defaulting to unpruned grid for atomic number  78.
 Defaulting to unpruned grid for atomic number  78.
 Defaulting to unpruned grid for atomic number  78.
 Defaulting to unpruned grid for atomic number  78.
 Defaulting to unpruned grid for atomic number  78.
 E= -32984.0751352481    
 DIIS: error= 2.91D-01 at cycle   1 NSaved=   1.
 NSaved= 1 IEnMin= 1 EnMin= -32984.0751352481     IErMin= 1 ErrMin= 2.91D-01
 ErrMax= 2.91D-01 EMaxC= 1.00D-01 BMatC= 3.65D+02 BMatP= 3.65D+02
 IDIUse=3 WtCom= 0.00D+00 WtEn= 1.00D+00
 Coeff-Com:  0.100D+01
 Coeff-En:   0.100D+01
 Coeff:      0.100D+01
 Gap=     0.368 Goal=   None    Shift=    0.000
 GapD=    0.368 DampG=1.000 DampE=0.125 DampFc=0.1250 IDamp=-1.
 Damping current iteration by 1.25D-01
 RMSDP=5.93D-03 MaxDP=1.65D+00              OVMax= 5.31D-01

 Cycle   2  Pass 1  IDiag  1:
 RMSU=  5.23D-04    CP:  1.00D+00
 E= -32985.2841135328     Delta-E=       -1.208978284747 Rises=F Damp=T
 DIIS: error= 2.52D-01 at cycle   2 NSaved=   2.
 NSaved= 2 IEnMin= 2 EnMin= -32985.2841135328     IErMin= 2 ErrMin= 2.52D-01
 ErrMax= 2.52D-01 EMaxC= 1.00D-01 BMatC= 2.63D+02 BMatP= 3.65D+02
 IDIUse=3 WtCom= 0.00D+00 WtEn= 1.00D+00
 Coeff-Com: -0.512D+01 0.612D+01
 Coeff-En:   0.000D+00 0.100D+01
 Coeff:      0.000D+00 0.100D+01
 Gap=    -0.035 Goal=   None    Shift=    0.000
 RMSDP=3.20D-03 MaxDP=7.92D-01 DE=-1.21D+00 OVMax= 4.09D-01

 Cycle   3  Pass 1  IDiag  1:
 RMSU=  1.51D-03    CP:  1.01D+00  3.00D+00
 E= -32984.3279870640     Delta-E=        0.956126468787 Rises=F Damp=F
 DIIS: error= 5.76D-02 at cycle   3 NSaved=   3.
 NSaved= 3 IEnMin= 2 EnMin= -32985.2841135328     IErMin= 3 ErrMin= 5.76D-02
 ErrMax= 5.76D-02 EMaxC= 1.00D-01 BMatC= 2.67D+01 BMatP= 2.63D+02
 IDIUse=3 WtCom= 4.24D-01 WtEn= 5.76D-01
 EnCoef did   100 forward-backward iterations
 Coeff-Com:  0.412D+01-0.456D+01 0.144D+01
 Coeff-En:   0.472D+00 0.205D-01 0.507D+00
 Coeff:      0.202D+01-0.192D+01 0.902D+00
 Gap=     0.099 Goal=   None    Shift=    0.000
 RMSDP=3.47D-03 MaxDP=4.19D-01 DE= 9.56D-01 OVMax= 8.53D-01

 Cycle   4  Pass 1  IDiag  1:
 RMSU=  1.86D-03    CP:  9.97D-01  1.95D+00  2.42D-01
 E= -32980.9464768023     Delta-E=        3.381510261759 Rises=F Damp=F
 DIIS: error= 4.31D-02 at cycle   4 NSaved=   4.
 NSaved= 4 IEnMin= 2 EnMin= -32985.2841135328     IErMin= 4 ErrMin= 4.31D-02
 ErrMax= 4.31D-02 EMaxC= 1.00D-01 BMatC= 1.07D+01 BMatP= 2.67D+01
 IDIUse=3 WtCom= 5.69D-01 WtEn= 4.31D-01
 EnCoef did   100 forward-backward iterations
 Coeff-Com: -0.290D+01 0.338D+01-0.153D+00 0.673D+00
 Coeff-En:   0.102D+00 0.979D-02 0.557D+00 0.331D+00
 Coeff:     -0.161D+01 0.193D+01 0.153D+00 0.526D+00
 Gap=     0.150 Goal=   None    Shift=    0.000
 RMSDP=3.69D-03 MaxDP=6.50D-01 DE= 3.38D+00 OVMax= 7.73D-01

 Cycle   5  Pass 1  IDiag  1:
 RMSU=  1.30D-03    CP:  9.85D-01  2.61D+00  4.52D-01 -1.90D-01
 E= -32986.4822150747     Delta-E=       -5.535738272476 Rises=F Damp=F
 DIIS: error= 2.39D-02 at cycle   5 NSaved=   5.
 NSaved= 5 IEnMin= 5 EnMin= -32986.4822150747     IErMin= 5 ErrMin= 2.39D-02
 ErrMax= 2.39D-02 EMaxC= 1.00D-01 BMatC= 3.56D+00 BMatP= 1.07D+01
 IDIUse=3 WtCom= 7.61D-01 WtEn= 2.39D-01
 EnCoef did    10 forward-backward iterations
 Coeff-Com: -0.230D+01 0.265D+01-0.292D+00 0.472D+00 0.471D+00
 Coeff-En:   0.000D+00 0.000D+00 0.433D-01 0.323D+00 0.634D+00
 Coeff:     -0.175D+01 0.202D+01-0.212D+00 0.436D+00 0.510D+00
 Gap=     0.144 Goal=   None    Shift=    0.000
 RMSDP=1.73D-03 MaxDP=4.25D-01 DE=-5.54D+00 OVMax= 2.82D-01

 Cycle   6  Pass 1  IDiag  1:
 RMSU=  6.22D-04    CP:  9.95D-01  2.68D+00  5.81D-01  6.02D-02  2.91D-01
 E= -32988.6845027599     Delta-E=       -2.202287685199 Rises=F Damp=F
 DIIS: error= 1.19D-02 at cycle   6 NSaved=   6.
 NSaved= 6 IEnMin= 6 EnMin= -32988.6845027599     IErMin= 6 ErrMin= 1.19D-02
 ErrMax= 1.19D-02 EMaxC= 1.00D-01 BMatC= 8.09D-01 BMatP= 3.56D+00
 IDIUse=3 WtCom= 8.81D-01 WtEn= 1.19D-01
 Coeff-Com: -0.357D+00 0.406D+00-0.119D+00 0.179D+00-0.840D-02 0.900D+00
 Coeff-En:   0.000D+00 0.000D+00 0.000D+00 0.137D+00 0.000D+00 0.863D+00
 Coeff:     -0.315D+00 0.357D+00-0.105D+00 0.174D+00-0.740D-02 0.896D+00
 Gap=     0.090 Goal=   None    Shift=    0.000
 RMSDP=1.05D-03 MaxDP=2.09D-01 DE=-2.20D+00 OVMax= 1.57D-01

 Cycle   7  Pass 1  IDiag  1:
 RMSU=  4.83D-04    CP:  9.92D-01  1.77D+00  4.76D-01  1.73D-01  2.09D-01
                    CP:  8.11D-01
 E= -32989.1486050938     Delta-E=       -0.464102333914 Rises=F Damp=F
 DIIS: error= 4.42D-03 at cycle   7 NSaved=   7.
 NSaved= 7 IEnMin= 7 EnMin= -32989.1486050938     IErMin= 7 ErrMin= 4.42D-03
 ErrMax= 4.42D-03 EMaxC= 1.00D-01 BMatC= 1.31D-01 BMatP= 8.09D-01
 IDIUse=3 WtCom= 9.56D-01 WtEn= 4.42D-02
 Coeff-Com:  0.606D-01-0.707D-01-0.150D-01 0.898D-02-0.113D+00 0.472D+00
 Coeff-Com:  0.656D+00
 Coeff-En:   0.000D+00 0.000D+00 0.000D+00 0.000D+00 0.000D+00 0.161D+00
 Coeff-En:   0.839D+00
 Coeff:      0.579D-01-0.676D-01-0.143D-01 0.858D-02-0.108D+00 0.459D+00
 Coeff:      0.664D+00
 Gap=     0.094 Goal=   None    Shift=    0.000
 RMSDP=5.41D-04 MaxDP=1.56D-01 DE=-4.64D-01 OVMax= 5.18D-02

 Cycle   8  Pass 1  IDiag  1:
 RMSU=  2.01D-04    CP:  9.94D-01  2.14D+00  5.24D-01  1.92D-01  9.44D-02
                    CP:  1.03D+00  7.01D-01
 E= -32989.2369855478     Delta-E=       -0.088380453963 Rises=F Damp=F
 DIIS: error= 1.35D-03 at cycle   8 NSaved=   8.
 NSaved= 8 IEnMin= 8 EnMin= -32989.2369855478     IErMin= 8 ErrMin= 1.35D-03
 ErrMax= 1.35D-03 EMaxC= 1.00D-01 BMatC= 1.06D-02 BMatP= 1.31D-01
 IDIUse=3 WtCom= 9.87D-01 WtEn= 1.35D-02
 Coeff-Com:  0.348D-01-0.405D-01-0.505D-02 0.983D-04-0.448D-01 0.210D+00
 Coeff-Com:  0.354D+00 0.491D+00
 Coeff-En:   0.000D+00 0.000D+00 0.000D+00 0.000D+00 0.000D+00 0.000D+00
 Coeff-En:   0.423D-01 0.958D+00
 Coeff:      0.343D-01-0.399D-01-0.498D-02 0.970D-04-0.442D-01 0.208D+00
 Coeff:      0.350D+00 0.498D+00
 Gap=     0.094 Goal=   None    Shift=    0.000
 RMSDP=1.75D-04 MaxDP=3.92D-02 DE=-8.84D-02 OVMax= 2.34D-02

 Cycle   9  Pass 1  IDiag  1:
 RMSU=  5.67D-05    CP:  9.94D-01  2.06D+00  5.19D-01  1.82D-01  1.28D-01
                    CP:  9.87D-01  7.63D-01  6.08D-01
 E= -32989.2468965544     Delta-E=       -0.009911006571 Rises=F Damp=F
 DIIS: error= 2.48D-04 at cycle   9 NSaved=   9.
 NSaved= 9 IEnMin= 9 EnMin= -32989.2468965544     IErMin= 9 ErrMin= 2.48D-04
 ErrMax= 2.48D-04 EMaxC= 1.00D-01 BMatC= 6.50D-04 BMatP= 1.06D-02
 IDIUse=3 WtCom= 9.98D-01 WtEn= 2.48D-03
 Coeff-Com:  0.404D-02-0.485D-02-0.217D-02-0.105D-02-0.604D-02 0.484D-01
 Coeff-Com:  0.887D-01 0.234D+00 0.639D+00
 Coeff-En:   0.000D+00 0.000D+00 0.000D+00 0.000D+00 0.000D+00 0.000D+00
 Coeff-En:   0.000D+00 0.000D+00 0.100D+01
 Coeff:      0.403D-02-0.484D-02-0.217D-02-0.105D-02-0.602D-02 0.483D-01
 Coeff:      0.885D-01 0.234D+00 0.640D+00
 Gap=     0.094 Goal=   None    Shift=    0.000
 RMSDP=4.50D-05 MaxDP=3.94D-03 DE=-9.91D-03 OVMax= 5.97D-03

 Error on total polarization charges =  0.03141
 SCF Done:  E(RPBE-PBE) =  -32989.2468966     A.U. after    9 cycles
             Convg  =    0.4502D-04             -V/T =  2.0154
 KE= 3.248983565195D+04 PE=-9.843656698634D+04 EE= 2.279905310791D+04
 Leave Link  502 at Sat Jun 15 01:14:39 2019, MaxMem=13421772800 cpu:   35728.0
 (Enter /home/scr/programs/g09/l801.exe)
 Range of M.O.s used for correlation:     1  1203
 NBasis=  1203 NAE=   207 NBE=   207 NFC=     0 NFV=     0
 NROrb=   1203 NOA=   207 NOB=   207 NVA=   996 NVB=   996

 **** Warning!!: The largest alpha MO coefficient is  0.44370728D+02


 **** Warning!!: The smallest alpha delta epsilon is  0.94089543D-01

 Leave Link  801 at Sat Jun 15 01:14:39 2019, MaxMem=13421772800 cpu:       1.3
 (Enter /home/scr/programs/g09/l1002.exe)
 Minotr:  Closed shell wavefunction.
 NEqPCM:  Using equilibrium solvation (IEInf=0, Eps=   8.9300, EpsInf=   2.0283)
          Direct CPHF calculation.
          Differentiating once with respect to magnetic field using GIAOs.
          Electric field/nuclear overlap derivatives assumed to be zero.
          Requested convergence is 1.0D-08 RMS, and 1.0D-07 maximum.
          Secondary convergence is 1.0D-12 RMS, and 1.0D-12 maximum.
          NewPWx=T KeepS1=F KeepF1=F KeepIn=T MapXYZ=F SortEE=F KeepMc=T.
          MDV=   13421772364 using IRadAn=       2.
 Defaulting to unpruned grid for atomic number  78.
 Defaulting to unpruned grid for atomic number  50.
 Generate precomputed XC quadrature information.
          Solving linear equations simultaneously, MaxMat=       0.
 FoFCou: FMM=F IPFlag=           0 FMFlag=    10101102 FMFlg1=           0
         NFxFlg=    40000000 DoJE=F BraDBF=F KetDBF=T FulRan=T
         Omega=  0.000000  0.000000  1.000000  0.000000  0.000000 ICntrl=    6100 IOpCl=  0
         NMat0=    1 NMatS0=    1 NMatT0=    0 NMatD0=    1 NMtDS0=    0 NMtDT0=    0
         I1Cent=           7 NGrid=        4242.
 Symmetry not used in FoFCou.
 Defaulting to unpruned grid for atomic number  78.
 Defaulting to unpruned grid for atomic number  78.
 Defaulting to unpruned grid for atomic number  78.
 Defaulting to unpruned grid for atomic number  78.
 Defaulting to unpruned grid for atomic number  78.
 Defaulting to unpruned grid for atomic number  78.
 Defaulting to unpruned grid for atomic number  78.
 Defaulting to unpruned grid for atomic number  78.
 Defaulting to unpruned grid for atomic number  78.
 Defaulting to unpruned grid for atomic number  78.
 Defaulting to unpruned grid for atomic number  78.
 Defaulting to unpruned grid for atomic number  78.
 Defaulting to unpruned grid for atomic number  78.
 Defaulting to unpruned grid for atomic number  78.
 Defaulting to unpruned grid for atomic number  78.
 Defaulting to unpruned grid for atomic number  78.
 Defaulting to unpruned grid for atomic number  78.
 Defaulting to unpruned grid for atomic number  78.
 Defaulting to unpruned grid for atomic number  78.
 Defaulting to unpruned grid for atomic number  78.
 Defaulting to unpruned grid for atomic number  78.
 Defaulting to unpruned grid for atomic number  78.
 Defaulting to unpruned grid for atomic number  78.
 Defaulting to unpruned grid for atomic number  78.
 Defaulting to unpruned grid for atomic number  78.
 Defaulting to unpruned grid for atomic number  78.
 Defaulting to unpruned grid for atomic number  78.
 Defaulting to unpruned grid for atomic number  78.
 Defaulting to unpruned grid for atomic number  78.
 Defaulting to unpruned grid for atomic number  78.
 Defaulting to unpruned grid for atomic number  78.
 Defaulting to unpruned grid for atomic number  78.
          There are     3 degrees of freedom in the 1st order CPHF.  IDoFFX=0.
      3 vectors produced by pass  0 Test12= 6.87D-12 3.33D-08 XBig12= 1.52D+02 1.65D+00.
 AX will form     3 AO Fock derivatives at one time.
 Inverted reduced A of dimension     3 with in-core refinement.
 Calculating GIAO nuclear magnetic shielding tensors.
 SCF GIAO Magnetic shielding tensor (ppm):
  1  Pt   Isotropic =  3387.8752   Anisotropy =   491.0509
   XX=  3122.0799   YX=    30.2757   ZX=    52.2771
   XY=   -14.1039   YY=  3338.0236   ZY=   -58.0246
   XZ=   112.9649   YZ=    73.6644   ZZ=  3703.5220
   Eigenvalues:  3110.3566  3338.0265  3715.2424
  2  H    Isotropic =    35.6005   Anisotropy =    25.1091
   XX=    28.6029   YX=    -0.7351   ZX=     0.5507
   XY=    -0.5856   YY=    25.9239   ZY=    -1.0534
   XZ=    -0.2378   YZ=    -1.5432   ZZ=    52.2746
   Eigenvalues:    25.7130    28.7485    52.3399
  3  Sn   Isotropic =  2179.7985   Anisotropy =   931.9553
   XX=  2626.9515   YX=  -311.4294   ZX=  -214.5393
   XY=  -267.9108   YY=  1899.3089   ZY=    83.2968
   XZ=  -233.5607   YZ=    87.5957   ZZ=  2013.1350
   Eigenvalues:  1797.7804  1940.5130  2801.1020
  4  Sn   Isotropic =  2200.0503   Anisotropy =   883.5583
   XX=  2378.0364   YX=   462.0267   ZX=   118.0578
   XY=   406.8956   YY=  2254.4601   ZY=   108.1342
   XZ=   129.0049   YZ=   117.1813   ZZ=  1967.6545
   Eigenvalues:  1877.1266  1933.9351  2789.0892
  5  Cl   Isotropic =   714.8712   Anisotropy =   408.7084
   XX=   729.6570   YX=   105.2608   ZX=  -134.1726
   XY=   138.6009   YY=   648.5640   ZY=  -136.9441
   XZ=  -152.1040   YZ=  -126.3798   ZZ=   766.3927
   Eigenvalues:   553.2463   604.0239   987.3435
  6  Cl   Isotropic =   729.0988   Anisotropy =   398.9771
   XX=   598.5365   YX=  -105.4035   ZX=   -29.1497
   XY=  -120.0594   YY=   875.9007   ZY=   139.6440
   XZ=   -40.0211   YZ=   152.6461   ZZ=   712.8594
   Eigenvalues:   555.7021   636.5109   995.0835
  7  Cl   Isotropic =   722.0341   Anisotropy =   359.4979
   XX=   821.5555   YX=   -16.0255   ZX=   174.9338
   XY=     5.0463   YY=   634.5079   ZY=   -51.0644
   XZ=   192.7982   YZ=   -51.3385   ZZ=   710.0389
   Eigenvalues:   554.9419   649.4610   961.6994
  8  Cl   Isotropic =   729.1499   Anisotropy =   402.3267
   XX=   554.3345   YX=    -6.3209   ZX=    -0.5177
   XY=     3.7534   YY=   989.0657   ZY=    53.9159
   XZ=    -8.1071   YZ=    54.3472   ZZ=   644.0495
   Eigenvalues:   554.1234   635.9586   997.3677
  9  Cl   Isotropic =   740.2414   Anisotropy =   353.0737
   XX=   826.4196   YX=    21.1090   ZX=  -166.1345
   XY=    -1.8987   YY=   620.5336   ZY=   -49.5453
   XZ=  -173.2955   YZ=   -40.3537   ZZ=   773.7711
   Eigenvalues:   594.2189   650.8815   975.6239
 10  Cl   Isotropic =   721.4273   Anisotropy =   396.4195
   XX=   754.3119   YX=    -7.4373   ZX=   190.4507
   XY=   -33.1962   YY=   584.0345   ZY=   -31.8702
   XZ=   189.0913   YZ=   -16.1523   ZZ=   825.9356
   Eigenvalues:   581.5652   597.0098   985.7070
 11  P    Isotropic =   265.6959   Anisotropy =    60.1296
   XX=   219.4572   YX=    -3.9426   ZX=     7.4541
   XY=   -40.5373   YY=   272.1453   ZY=    -0.3900
   XZ=    -6.7957   YZ=     6.3070   ZZ=   305.4851
   Eigenvalues:   211.3062   279.9992   305.7823
 12  P    Isotropic =   276.7342   Anisotropy =    58.6357
   XX=   270.2017   YX=    -7.4870   ZX=    -5.9033
   XY=    -7.5901   YY=   311.0117   ZY=   -11.7593
   XZ=   -31.4702   YZ=   -23.4761   ZZ=   248.9892
   Eigenvalues:   233.4390   280.9390   315.8247
 13  C    Isotropic =   143.4775   Anisotropy =    55.5677
   XX=   116.4364   YX=   -13.0905   ZX=     9.2740
   XY=   -20.3733   YY=   152.8878   ZY=   -14.3033
   XZ=    12.8980   YZ=   -20.2606   ZZ=   161.1083
   Eigenvalues:   109.5415   140.3684   180.5226
 14  H    Isotropic =    28.9864   Anisotropy =     8.1205
   XX=    27.0938   YX=    -2.1946   ZX=    -3.0674
   XY=    -4.9201   YY=    28.5516   ZY=    -3.6518
   XZ=    -1.7431   YZ=    -4.8370   ZZ=    31.3137
   Eigenvalues:    21.9129    30.6462    34.4000
 15  C    Isotropic =   161.1112   Anisotropy =    10.4881
   XX=   166.9780   YX=    -4.2181   ZX=     2.4829
   XY=     3.0333   YY=   155.5228   ZY=     8.4753
   XZ=     2.1942   YZ=     4.8634   ZZ=   160.8328
   Eigenvalues:   150.7963   164.4340   168.1033
 16  H    Isotropic =    29.9663   Anisotropy =     6.5417
   XX=    27.3186   YX=    -1.3775   ZX=     0.5102
   XY=    -1.1902   YY=    29.2586   ZY=     2.6475
   XZ=    -0.0177   YZ=     1.8336   ZZ=    33.3216
   Eigenvalues:    26.4260    29.1454    34.3274
 17  C    Isotropic =   148.1909   Anisotropy =    36.6942
   XX=   144.0335   YX=    12.6301   ZX=     2.0547
   XY=    12.1698   YY=   167.2165   ZY=     1.3138
   XZ=     6.3067   YZ=    -1.7702   ZZ=   133.3225
   Eigenvalues:   131.2022   140.7167   172.6536
 18  H    Isotropic =    29.1819   Anisotropy =     6.4865
   XX=    31.2652   YX=     0.6469   ZX=    -3.4178
   XY=    -0.0560   YY=    33.3580   ZY=    -0.2007
   XZ=    -2.1366   YZ=    -0.8334   ZZ=    22.9223
   Eigenvalues:    22.0676    31.9719    33.5062
 19  C    Isotropic =   152.4415   Anisotropy =    35.2981
   XX=   152.3432   YX=     7.1650   ZX=     8.7885
   XY=     6.2834   YY=   139.2939   ZY=    14.5839
   XZ=    13.3046   YZ=     5.8190   ZZ=   165.6873
   Eigenvalues:   135.1845   146.1663   175.9736
 20  H    Isotropic =    28.5029   Anisotropy =    10.5524
   XX=    32.1467   YX=    -2.1231   ZX=    -1.6926
   XY=    -1.6856   YY=    21.7728   ZY=     5.6262
   XZ=    -1.6654   YZ=     5.0698   ZZ=    31.5892
   Eigenvalues:    19.3305    30.6404    35.5378
 21  H    Isotropic =    29.7009   Anisotropy =     6.7480
   XX=    25.7129   YX=     2.8249   ZX=     3.6200
   XY=     2.5978   YY=    30.4083   ZY=    -0.4907
   XZ=     2.7526   YZ=    -1.0402   ZZ=    32.9814
   Eigenvalues:    23.3902    31.5129    34.1995
 22  C    Isotropic =   174.0920   Anisotropy =    20.8436
   XX=   172.5318   YX=     2.1809   ZX=     0.1655
   XY=    -0.5188   YY=   162.9446   ZY=     6.2178
   XZ=     2.7239   YZ=     3.8882   ZZ=   186.7997
   Eigenvalues:   161.8920   172.3962   187.9878
 23  H    Isotropic =    30.2888   Anisotropy =    12.8304
   XX=    32.3981   YX=     3.9107   ZX=     4.2723
   XY=     3.5528   YY=    26.5859   ZY=     2.9189
   XZ=     5.2367   YZ=     3.3815   ZZ=    31.8825
   Eigenvalues:    24.6218    27.4023    38.8424
 24  H    Isotropic =    30.1580   Anisotropy =     9.8586
   XX=    29.8997   YX=    -1.1319   ZX=    -0.0804
   XY=    -1.5414   YY=    26.8394   ZY=     5.0850
   XZ=    -1.7950   YZ=     5.0563   ZZ=    33.7349
   Eigenvalues:    24.0582    29.6855    36.7304
 25  H    Isotropic =    30.0331   Anisotropy =     9.0125
   XX=    26.3046   YX=     0.2149   ZX=     4.0303
   XY=     0.5787   YY=    29.6268   ZY=    -1.2541
   XZ=     2.9581   YZ=    -3.0131   ZZ=    34.1679
   Eigenvalues:    24.6997    29.3581    36.0415
 26  C    Isotropic =   155.4106   Anisotropy =    31.9953
   XX=   156.0182   YX=   -11.4369   ZX=   -14.3151
   XY=    -8.6874   YY=   146.5964   ZY=     2.3390
   XZ=   -14.6005   YZ=     1.1368   ZZ=   163.6171
   Eigenvalues:   138.0549   151.4360   176.7408
 27  H    Isotropic =    28.5489   Anisotropy =     8.0550
   XX=    29.2104   YX=    -0.6490   ZX=     0.8462
   XY=    -1.8615   YY=    22.7446   ZY=     1.3058
   XZ=     0.2548   YZ=     1.6444   ZZ=    33.6918
   Eigenvalues:    22.2980    29.4298    33.9190
 28  C    Isotropic =   161.6762   Anisotropy =    12.5579
   XX=   168.6118   YX=    -3.7996   ZX=    -1.4857
   XY=     0.1328   YY=   159.6625   ZY=   -13.9944
   XZ=    -7.1191   YZ=    -0.6043   ZZ=   156.7543
   Eigenvalues:   149.6943   165.2862   170.0481
 29  H    Isotropic =    29.1866   Anisotropy =     9.9513
   XX=    24.4528   YX=    -1.7690   ZX=    -0.4188
   XY=    -1.5046   YY=    27.5628   ZY=    -1.9696
   XZ=    -0.5633   YZ=    -1.0340   ZZ=    35.5443
   Eigenvalues:    23.6561    28.0830    35.8208
 30  H    Isotropic =    29.7240   Anisotropy =     7.6029
   XX=    33.6515   YX=     3.3612   ZX=     0.1914
   XY=     2.0727   YY=    27.7733   ZY=    -2.2583
   XZ=    -0.3436   YZ=    -1.3166   ZZ=    27.7473
   Eigenvalues:    25.4916    28.8878    34.7926
 31  C    Isotropic =   171.6991   Anisotropy =    10.9940
   XX=   170.7827   YX=   -10.6435   ZX=    -3.7873
   XY=    -5.6455   YY=   170.7839   ZY=    -1.0134
   XZ=    -2.5317   YZ=    -3.3762   ZZ=   173.5307
   Eigenvalues:   161.4497   174.6192   179.0284
 32  H    Isotropic =    30.1684   Anisotropy =    13.1252
   XX=    26.0882   YX=    -2.9318   ZX=     0.3986
   XY=    -2.0895   YY=    35.3061   ZY=    -5.8559
   XZ=    -0.0974   YZ=    -5.1496   ZZ=    29.1109
   Eigenvalues:    24.6691    26.9176    38.9185
 33  H    Isotropic =    30.2883   Anisotropy =     5.4246
   XX=    26.9079   YX=    -0.6727   ZX=     0.7601
   XY=    -1.2836   YY=    30.6229   ZY=    -0.5377
   XZ=     1.5545   YZ=    -1.3226   ZZ=    33.3341
   Eigenvalues:    26.5408    30.4194    33.9047
 34  H    Isotropic =    30.2373   Anisotropy =     8.5277
   XX=    35.9094   YX=     0.0299   ZX=    -0.0881
   XY=    -0.0082   YY=    27.1812   ZY=    -3.0950
   XZ=    -0.5212   YZ=    -2.8679   ZZ=    27.6214
   Eigenvalues:    24.4082    30.3813    35.9225
 35  C    Isotropic =   171.8595   Anisotropy =    23.0873
   XX=   162.5292   YX=    -0.2824   ZX=    11.1705
   XY=    -4.0500   YY=   182.0196   ZY=    -5.8227
   XZ=     7.3731   YZ=    -8.5839   ZZ=   171.0297
   Eigenvalues:   156.3948   171.9325   187.2510
 36  H    Isotropic =    30.4118   Anisotropy =     9.5183
   XX=    27.1568   YX=     2.0374   ZX=     2.7310
   XY=     3.3289   YY=    35.4218   ZY=    -2.2119
   XZ=     2.0685   YZ=    -3.3214   ZZ=    28.6570
   Eigenvalues:    24.1085    30.3697    36.7574
 37  H    Isotropic =    30.2777   Anisotropy =    12.9674
   XX=    25.6185   YX=    -1.3310   ZX=     3.9574
   XY=    -1.6906   YY=    28.3746   ZY=    -3.6904
   XZ=     2.8706   YZ=    -2.6109   ZZ=    36.8401
   Eigenvalues:    24.5375    27.3730    38.9227
 38  H    Isotropic =    30.3151   Anisotropy =     7.8815
   XX=    32.1361   YX=    -3.1991   ZX=    -0.5986
   XY=    -4.3490   YY=    29.4514   ZY=    -2.7678
   XZ=     1.0147   YZ=    -3.7628   ZZ=    29.3577
   Eigenvalues:    25.0933    30.2826    35.5694
 39  C    Isotropic =   172.0432   Anisotropy =    22.8515
   XX=   160.8254   YX=     0.1256   ZX=     3.8532
   XY=     0.9006   YY=   186.6660   ZY=    -1.9399
   XZ=     6.4752   YZ=    -4.7740   ZZ=   168.6381
   Eigenvalues:   158.1199   170.7321   187.2775
 40  H    Isotropic =    30.3174   Anisotropy =     8.9872
   XX=    25.5380   YX=     1.1020   ZX=     2.2157
   XY=     0.9014   YY=    33.5819   ZY=    -4.2024
   XZ=     2.5534   YZ=    -2.6909   ZZ=    31.8324
   Eigenvalues:    24.2325    30.4109    36.3089
 41  H    Isotropic =    30.1691   Anisotropy =     8.1962
   XX=    29.4448   YX=    -0.0684   ZX=    -2.3576
   XY=    -2.0423   YY=    34.5195   ZY=     2.9095
   XZ=    -2.5030   YZ=     1.7740   ZZ=    26.5430
   Eigenvalues:    24.9050    29.9691    35.6332
 42  H    Isotropic =    30.3845   Anisotropy =    12.4383
   XX=    29.7632   YX=     4.0147   ZX=     1.9186
   XY=     5.6175   YY=    35.4220   ZY=     1.9102
   XZ=     2.5021   YZ=     1.3346   ZZ=    25.9683
   Eigenvalues:    24.9060    27.5709    38.6767
 43  C    Isotropic =   173.4536   Anisotropy =    12.8322
   XX=   180.0507   YX=     3.7261   ZX=     0.6852
   XY=     3.4557   YY=   174.8831   ZY=    -1.6874
   XZ=     5.4204   YZ=    -4.4675   ZZ=   165.4268
   Eigenvalues:   163.5375   174.8148   182.0083
 44  H    Isotropic =    29.8519   Anisotropy =    10.0142
   XX=    30.0835   YX=    -1.1404   ZX=    -0.8739
   XY=    -1.9432   YY=    35.5324   ZY=    -3.2889
   XZ=    -0.5744   YZ=    -2.6569   ZZ=    23.9397
   Eigenvalues:    23.0569    29.9707    36.5280
 45  H    Isotropic =    30.2047   Anisotropy =    12.6458
   XX=    36.6426   YX=    -3.9455   ZX=    -3.3515
   XY=    -2.9892   YY=    28.3881   ZY=     1.0225
   XZ=    -2.4556   YZ=     1.0662   ZZ=    25.5835
   Eigenvalues:    24.8540    27.1250    38.6353
 46  H    Isotropic =    30.3826   Anisotropy =     6.9059
   XX=    31.7958   YX=     0.1158   ZX=     3.7248
   XY=     0.0949   YY=    28.5355   ZY=     0.6821
   XZ=     3.4764   YZ=     0.7409   ZZ=    30.8166
   Eigenvalues:    27.4618    28.6995    34.9866
 47  C    Isotropic =   173.6207   Anisotropy =    21.1215
   XX=   174.7457   YX=     3.4232   ZX=    -3.3108
   XY=    -0.5917   YY=   160.1392   ZY=    -0.8307
   XZ=    -6.1103   YZ=     0.7184   ZZ=   185.9771
   Eigenvalues:   159.9969   173.1635   187.7017
 48  H    Isotropic =    30.3689   Anisotropy =    12.7506
   XX=    31.7952   YX=    -3.6895   ZX=    -5.0457
   XY=    -2.7190   YY=    27.0044   ZY=     1.8320
   XZ=    -6.0285   YZ=     2.7857   ZZ=    32.3072
   Eigenvalues:    25.3311    26.9064    38.8693
 49  H    Isotropic =    29.8111   Anisotropy =     7.9975
   XX=    27.7605   YX=     2.8012   ZX=    -4.4885
   XY=     1.9613   YY=    30.3165   ZY=    -0.3656
   XZ=    -4.0368   YZ=    -1.5226   ZZ=    31.3561
   Eigenvalues:    24.5308    29.7597    35.1427
 50  H    Isotropic =    29.9619   Anisotropy =     9.4023
   XX=    30.4359   YX=    -0.1994   ZX=     0.1170
   XY=     0.0762   YY=    23.5324   ZY=     1.1943
   XZ=     1.9786   YZ=     1.3307   ZZ=    35.9173
   Eigenvalues:    23.4011    30.2544    36.2301
 51  H    Isotropic =    28.6737   Anisotropy =    10.1751
   XX=    27.9306   YX=    -2.5704   ZX=    -0.8495
   XY=    -2.3324   YY=    34.5258   ZY=    -1.8527
   XZ=    -0.7894   YZ=    -1.1856   ZZ=    23.5648
   Eigenvalues:    23.0621    27.5021    35.4571
 52  H    Isotropic =    29.8413   Anisotropy =     3.7386
   XX=    26.6889   YX=    -2.5392   ZX=    -2.3485
   XY=    -1.4250   YY=    31.5640   ZY=    -0.9109
   XZ=    -1.8592   YZ=    -0.2800   ZZ=    31.2711
   Eigenvalues:    25.2002    31.9900    32.3338
 53  H    Isotropic =    29.3671   Anisotropy =     8.6042
   XX=    24.7733   YX=     1.4181   ZX=     4.9700
   XY=     1.2955   YY=    34.7669   ZY=    -1.5209
   XZ=     4.0351   YZ=    -1.3639   ZZ=    28.5613
   Eigenvalues:    21.5019    31.4963    35.1033
 54  H    Isotropic =    28.9716   Anisotropy =     8.7302
   XX=    24.6029   YX=    -0.4774   ZX=     5.0263
   XY=     1.6602   YY=    32.5258   ZY=    -2.5055
   XZ=     4.6561   YZ=    -2.9706   ZZ=    29.7862
   Eigenvalues:    21.3637    30.7594    34.7917
 End of Minotr Frequency-dependent properties file   721 does not exist.
 End of Minotr Frequency-dependent properties file   722 does not exist.
 Leave Link 1002 at Sat Jun 15 01:43:28 2019, MaxMem=13421772800 cpu:   53561.5
 (Enter /home/scr/programs/g09/l601.exe)
 Copying SCF densities to generalized density rwf, IOpCl= 0 IROHF=0.

 **********************************************************************

            Population analysis using the SCF density.

 **********************************************************************

 Orbital symmetries:
       Occupied  (A) (A) (A) (A) (A) (A) (A) (A) (A) (A) (A) (A)
                 (A) (A) (A) (A) (A) (A) (A) (A) (A) (A) (A) (A)
                 (A) (A) (A) (A) (A) (A) (A) (A) (A) (A) (A) (A)
                 (A) (A) (A) (A) (A) (A) (A) (A) (A) (A) (A) (A)
                 (A) (A) (A) (A) (A) (A) (A) (A) (A) (A) (A) (A)
                 (A) (A) (A) (A) (A) (A) (A) (A) (A) (A) (A) (A)
                 (A) (A) (A) (A) (A) (A) (A) (A) (A) (A) (A) (A)
                 (A) (A) (A) (A) (A) (A) (A) (A) (A) (A) (A) (A)
                 (A) (A) (A) (A) (A) (A) (A) (A) (A) (A) (A) (A)
                 (A) (A) (A) (A) (A) (A) (A) (A) (A) (A) (A) (A)
                 (A) (A) (A) (A) (A) (A) (A) (A) (A) (A) (A) (A)
                 (A) (A) (A) (A) (A) (A) (A) (A) (A) (A) (A) (A)
                 (A) (A) (A) (A) (A) (A) (A) (A) (A) (A) (A) (A)
                 (A) (A) (A) (A) (A) (A) (A) (A) (A) (A) (A) (A)
                 (A) (A) (A) (A) (A) (A) (A) (A) (A) (A) (A) (A)
                 (A) (A) (A) (A) (A) (A) (A) (A) (A) (A) (A) (A)
                 (A) (A) (A) (A) (A) (A) (A) (A) (A) (A) (A) (A)
                 (A) (A) (A)
       Virtual   (A) (A) (A) (A) (A) (A) (A) (A) (A) (A) (A) (A)
                 (A) (A) (A) (A) (A) (A) (A) (A) (A) (A) (A) (A)
                 (A) (A) (A) (A) (A) (A) (A) (A) (A) (A) (A) (A)
                 (A) (A) (A) (A) (A) (A) (A) (A) (A) (A) (A) (A)
                 (A) (A) (A) (A) (A) (A) (A) (A) (A) (A) (A) (A)
                 (A) (A) (A) (A) (A) (A) (A) (A) (A) (A) (A) (A)
                 (A) (A) (A) (A) (A) (A) (A) (A) (A) (A) (A) (A)
                 (A) (A) (A) (A) (A) (A) (A) (A) (A) (A) (A) (A)
                 (A) (A) (A) (A) (A) (A) (A) (A) (A) (A) (A) (A)
                 (A) (A) (A) (A) (A) (A) (A) (A) (A) (A) (A) (A)
                 (A) (A) (A) (A) (A) (A) (A) (A) (A) (A) (A) (A)
                 (A) (A) (A) (A) (A) (A) (A) (A) (A) (A) (A) (A)
                 (A) (A) (A) (A) (A) (A) (A) (A) (A) (A) (A) (A)
                 (A) (A) (A) (A) (A) (A) (A) (A) (A) (A) (A) (A)
                 (A) (A) (A) (A) (A) (A) (A) (A) (A) (A) (A) (A)
                 (A) (A) (A) (A) (A) (A) (A) (A) (A) (A) (A) (A)
                 (A) (A) (A) (A) (A) (A) (A) (A) (A) (A) (A) (A)
                 (A) (A) (A) (A) (A) (A) (A) (A) (A) (A) (A) (A)
                 (A) (A) (A) (A) (A) (A) (A) (A) (A) (A) (A) (A)
                 (A) (A) (A) (A) (A) (A) (A) (A) (A) (A) (A) (A)
                 (A) (A) (A) (A) (A) (A) (A) (A) (A) (A) (A) (A)
                 (A) (A) (A) (A) (A) (A) (A) (A) (A) (A) (A) (A)
                 (A) (A) (A) (A) (A) (A) (A) (A) (A) (A) (A) (A)
                 (A) (A) (A) (A) (A) (A) (A) (A) (A) (A) (A) (A)
                 (A) (A) (A) (A) (A) (A) (A) (A) (A) (A) (A) (A)
                 (A) (A) (A) (A) (A) (A) (A) (A) (A) (A) (A) (A)
                 (A) (A) (A) (A) (A) (A) (A) (A) (A) (A) (A) (A)
                 (A) (A) (A) (A) (A) (A) (A) (A) (A) (A) (A) (A)
                 (A) (A) (A) (A) (A) (A) (A) (A) (A) (A) (A) (A)
                 (A) (A) (A) (A) (A) (A) (A) (A) (A) (A) (A) (A)
                 (A) (A) (A) (A) (A) (A) (A) (A) (A) (A) (A) (A)
                 (A) (A) (A) (A) (A) (A) (A) (A) (A) (A) (A) (A)
                 (A) (A) (A) (A) (A) (A) (A) (A) (A) (A) (A) (A)
                 (A) (A) (A) (A) (A) (A) (A) (A) (A) (A) (A) (A)
                 (A) (A) (A) (A) (A) (A) (A) (A) (A) (A) (A) (A)
                 (A) (A) (A) (A) (A) (A) (A) (A) (A) (A) (A) (A)
                 (A) (A) (A) (A) (A) (A) (A) (A) (A) (A) (A) (A)
                 (A) (A) (A) (A) (A) (A) (A) (A) (A) (A) (A) (A)
                 (A) (A) (A) (A) (A) (A) (A) (A) (A) (A) (A) (A)
                 (A) (A) (A) (A) (A) (A) (A) (A) (A) (A) (A) (A)
                 (A) (A) (A) (A) (A) (A) (A) (A) (A) (A) (A) (A)
                 (A) (A) (A) (A) (A) (A) (A) (A) (A) (A) (A) (A)
                 (A) (A) (A) (A) (A) (A) (A) (A) (A) (A) (A) (A)
                 (A) (A) (A) (A) (A) (A) (A) (A) (A) (A) (A) (A)
                 (A) (A) (A) (A) (A) (A) (A) (A) (A) (A) (A) (A)
                 (A) (A) (A) (A) (A) (A) (A) (A) (A) (A) (A) (A)
                 (A) (A) (A) (A) (A) (A) (A) (A) (A) (A) (A) (A)
                 (A) (A) (A) (A) (A) (A) (A) (A) (A) (A) (A) (A)
                 (A) (A) (A) (A) (A) (A) (A) (A) (A) (A) (A) (A)
                 (A) (A) (A) (A) (A) (A) (A) (A) (A) (A) (A) (A)
                 (A) (A) (A) (A) (A) (A) (A) (A) (A) (A) (A) (A)
                 (A) (A) (A) (A) (A) (A) (A) (A) (A) (A) (A) (A)
                 (A) (A) (A) (A) (A) (A) (A) (A) (A) (A) (A) (A)
                 (A) (A) (A) (A) (A) (A) (A) (A) (A) (A) (A) (A)
                 (A) (A) (A) (A) (A) (A) (A) (A) (A) (A) (A) (A)
                 (A) (A) (A) (A) (A) (A) (A) (A) (A) (A) (A) (A)
                 (A) (A) (A) (A) (A) (A) (A) (A) (A) (A) (A) (A)
                 (A) (A) (A) (A) (A) (A) (A) (A) (A) (A) (A) (A)
                 (A) (A) (A) (A) (A) (A) (A) (A) (A) (A) (A) (A)
                 (A) (A) (A) (A) (A) (A) (A) (A) (A) (A) (A) (A)
                 (A) (A) (A) (A) (A) (A) (A) (A) (A) (A) (A) (A)
                 (A) (A) (A) (A) (A) (A) (A) (A) (A) (A) (A) (A)
                 (A) (A) (A) (A) (A) (A) (A) (A) (A) (A) (A) (A)
                 (A) (A) (A) (A) (A) (A) (A) (A) (A) (A) (A) (A)
                 (A) (A) (A) (A) (A) (A) (A) (A) (A) (A) (A) (A)
                 (A) (A) (A) (A) (A) (A) (A) (A) (A) (A) (A) (A)
                 (A) (A) (A) (A) (A) (A) (A) (A) (A) (A) (A) (A)
                 (A) (A) (A) (A) (A) (A) (A) (A) (A) (A) (A) (A)
                 (A) (A) (A) (A) (A) (A) (A) (A) (A) (A) (A) (A)
                 (A) (A) (A) (A) (A) (A) (A) (A) (A) (A) (A) (A)
                 (A) (A) (A) (A) (A) (A) (A) (A) (A) (A) (A) (A)
                 (A) (A) (A) (A) (A) (A) (A) (A) (A) (A) (A) (A)
                 (A) (A) (A) (A) (A) (A) (A) (A) (A) (A) (A) (A)
                 (A) (A) (A) (A) (A) (A) (A) (A) (A) (A) (A) (A)
                 (A) (A) (A) (A) (A) (A) (A) (A) (A) (A) (A) (A)
                 (A) (A) (A) (A) (A) (A) (A) (A) (A) (A) (A) (A)
                 (A) (A) (A) (A) (A) (A) (A) (A) (A) (A) (A) (A)
                 (A) (A) (A) (A) (A) (A) (A) (A) (A) (A) (A) (A)
                 (A) (A) (A) (A) (A) (A) (A) (A) (A) (A) (A) (A)
                 (A) (A) (A) (A) (A) (A) (A) (A) (A) (A) (A) (A)
                 (A) (A) (A) (A) (A) (A) (A) (A) (A) (A) (A) (A)
                 (A) (A) (A) (A) (A) (A) (A) (A) (A) (A) (A) (A)
                 (A) (A) (A) (A) (A) (A) (A) (A) (A) (A) (A) (A)
 The electronic state is 1-A.
 Alpha  occ. eigenvalues -- ******************************-427.54260-414.87319
 Alpha  occ. eigenvalues -- -414.87140-414.87082-149.63521-149.63210-141.91340
 Alpha  occ. eigenvalues -- -141.91332-141.91272-141.91028-141.91019-141.90962
 Alpha  occ. eigenvalues -- -100.53794-100.53595-100.53524-100.53444-100.53441
 Alpha  occ. eigenvalues -- -100.53362 -99.92305 -92.08244 -92.07845 -92.07799
 Alpha  occ. eigenvalues --  -79.04035 -79.03859 -79.03836 -79.03632 -79.03620
 Alpha  occ. eigenvalues --  -76.28818 -76.28515 -28.79847 -28.79539 -25.14479
 Alpha  occ. eigenvalues --  -25.14456 -25.14274 -25.14167 -25.14142 -25.13975
 Alpha  occ. eigenvalues --  -20.83824 -17.69368 -17.69367 -17.69244 -17.69228
 Alpha  occ. eigenvalues --  -17.69197 -17.69054 -17.69052 -17.68940 -17.68921
 Alpha  occ. eigenvalues --  -17.68894 -17.40820 -17.40040 -17.39936 -11.59013
 Alpha  occ. eigenvalues --  -11.58485 -11.58442 -11.58058 -11.58016  -9.90192
[...]
 Alpha virt. eigenvalues --    0.30061   0.30293   0.30555   0.30762   0.30947
 Alpha virt. eigenvalues --    0.31444   0.31665   0.31758   0.32059   0.32415
 Alpha virt. eigenvalues --    0.32593   0.32683   0.32772   0.33448   0.33547
 Alpha virt. eigenvalues --    0.33580   0.33888   0.34065   0.34206   0.34485
 Alpha virt. eigenvalues --    0.34545   0.34920   0.35066   0.35193   0.35359
 Alpha virt. eigenvalues --    0.35643   0.35804   0.36129   0.36366   0.36617
 Alpha virt. eigenvalues --    0.36858   0.37222   0.37324   0.37617   0.37797
 Alpha virt. eigenvalues --    0.37899   0.38251   0.38498   0.38736   0.39244
 Alpha virt. eigenvalues --    0.39361   0.39708   0.39976   0.40438   0.40512
 Alpha virt. eigenvalues --    0.40698   0.40864   0.41188   0.41524   0.41665
 Alpha virt. eigenvalues --    0.41692   0.42496   0.42628   0.43055   0.43240
 Alpha virt. eigenvalues --    0.43518   0.43964   0.43985   0.44204   0.44591
 Alpha virt. eigenvalues --    0.44848   0.45155   0.45494   0.45565   0.45925
 Alpha virt. eigenvalues --    0.46020   0.46096   0.46521   0.46732   0.46965
 Alpha virt. eigenvalues --    0.47087   0.47296   0.47673   0.47994   0.48049
 Alpha virt. eigenvalues --    0.48362   0.48525   0.48565   0.49108   0.49258
 Alpha virt. eigenvalues --    0.49603   0.49902   0.49971   0.50541   0.50684
 Alpha virt. eigenvalues --    0.50857   0.51257   0.51532   0.51842   0.51986
 Alpha virt. eigenvalues --    0.52167   0.52424   0.52466   0.52809   0.53243
 Alpha virt. eigenvalues --    0.53512   0.53824   0.54090   0.54239   0.54534
 Alpha virt. eigenvalues --    0.54603   0.54849   0.55129   0.55376   0.55623
 Alpha virt. eigenvalues --    0.56064   0.56160   0.56393   0.56590   0.56818
 Alpha virt. eigenvalues --    0.57282   0.57481   0.57622   0.58146   0.58651
 Alpha virt. eigenvalues --    0.58673   0.58941   0.59260   0.59701   0.60239
 Alpha virt. eigenvalues --    0.60379   0.60605   0.60769   0.60973   0.61171
 Alpha virt. eigenvalues --    0.61515   0.61744   0.62008   0.62137   0.62649
 Alpha virt. eigenvalues --    0.62763   0.63213   0.63421   0.63631   0.63823
 Alpha virt. eigenvalues --    0.64277   0.64466   0.64601   0.64798   0.65096
 Alpha virt. eigenvalues --    0.65573   0.65678   0.65853   0.65964   0.66376
 Alpha virt. eigenvalues --    0.66543   0.66892   0.67045   0.67629   0.67703
 Alpha virt. eigenvalues --    0.68172   0.68364   0.68491   0.68705   0.68847
 Alpha virt. eigenvalues --    0.68972   0.69419   0.69978   0.70309   0.70397
 Alpha virt. eigenvalues --    0.70666   0.70939   0.71265   0.71384   0.71769
 Alpha virt. eigenvalues --    0.72006   0.72219   0.72601   0.72777   0.72813
 Alpha virt. eigenvalues --    0.73302   0.73891   0.73951   0.74017   0.74236
 Alpha virt. eigenvalues --    0.74590   0.75012   0.75159   0.75499   0.75824
 Alpha virt. eigenvalues --    0.76081   0.76191   0.76673   0.76953   0.77133
 Alpha virt. eigenvalues --    0.77597   0.77858   0.78385   0.78632   0.78817
 Alpha virt. eigenvalues --    0.79000   0.79487   0.79702   0.80028   0.80192
 Alpha virt. eigenvalues --    0.80418   0.80865   0.81373   0.81470   0.81906
 Alpha virt. eigenvalues --    0.82218   0.82462   0.82619   0.83083   0.83318
 Alpha virt. eigenvalues --    0.83376   0.83615   0.84061   0.84256   0.84432
 Alpha virt. eigenvalues --    0.84879   0.85228   0.85773   0.86024   0.86727
 Alpha virt. eigenvalues --    0.86796   0.87080   0.87221   0.87425   0.87548
 Alpha virt. eigenvalues --    0.87935   0.88641   0.88901   0.89050   0.89686
 Alpha virt. eigenvalues --    0.89907   0.90436   0.90762   0.90911   0.91419
 Alpha virt. eigenvalues --    0.91767   0.92045   0.92223   0.92294   0.92719
 Alpha virt. eigenvalues --    0.93372   0.93976   0.94060   0.94230   0.94759
 Alpha virt. eigenvalues --    0.95533   0.95774   0.95818   0.96274   0.96326
 Alpha virt. eigenvalues --    0.97081   0.97250   0.97405   0.97457   0.98125
 Alpha virt. eigenvalues --    0.98801   0.98869   0.99007   0.99474   1.00087
 Alpha virt. eigenvalues --    1.00412   1.01083   1.01124   1.01471   1.01677
 Alpha virt. eigenvalues --    1.01828   1.02049   1.02403   1.02900   1.03065
 Alpha virt. eigenvalues --    1.03850   1.04009   1.04233   1.04541   1.04855
 Alpha virt. eigenvalues --    1.05293   1.05480   1.06011   1.06402   1.06775
 Alpha virt. eigenvalues --    1.07307   1.07376   1.07882   1.07952   1.08423
 Alpha virt. eigenvalues --    1.08840   1.09295   1.09481   1.09946   1.10222
 Alpha virt. eigenvalues --    1.10619   1.11111   1.11274   1.11452   1.11926
 Alpha virt. eigenvalues --    1.12160   1.12237   1.12612   1.12866   1.13531
 Alpha virt. eigenvalues --    1.13724   1.14343   1.14578   1.14881   1.15386
 Alpha virt. eigenvalues --    1.15519   1.15965   1.16316   1.16557   1.17050
 Alpha virt. eigenvalues --    1.17426   1.17922   1.18243   1.18530   1.18837
 Alpha virt. eigenvalues --    1.19343   1.19679   1.20072   1.20409   1.20954
 Alpha virt. eigenvalues --    1.21873   1.22687   1.22755   1.23186   1.23602
 Alpha virt. eigenvalues --    1.23798   1.25220   1.25374   1.26146   1.26754
 Alpha virt. eigenvalues --    1.27209   1.28055   1.28600   1.29058   1.29657
 Alpha virt. eigenvalues --    1.30384   1.30588   1.30779   1.31305   1.31587
 Alpha virt. eigenvalues --    1.32120   1.32507   1.33265   1.34183   1.34668
 Alpha virt. eigenvalues --    1.35257   1.35845   1.36360   1.37064   1.37236
 Alpha virt. eigenvalues --    1.37555   1.38638   1.38882   1.39420   1.39863
 Alpha virt. eigenvalues --    1.40433   1.40908   1.41055   1.41492   1.41872
 Alpha virt. eigenvalues --    1.42026   1.43470   1.44441   1.44780   1.45124
 Alpha virt. eigenvalues --    1.45452   1.45743   1.46441   1.47096   1.47538
 Alpha virt. eigenvalues --    1.48323   1.48952   1.49247   1.50661   1.50764
 Alpha virt. eigenvalues --    1.51019   1.51510   1.51823   1.52247   1.53199
 Alpha virt. eigenvalues --    1.53953   1.54438   1.54903   1.55182   1.55991
 Alpha virt. eigenvalues --    1.56340   1.57590   1.57955   1.58069   1.59519
 Alpha virt. eigenvalues --    1.59866   1.60128   1.60426   1.60817   1.61697
 Alpha virt. eigenvalues --    1.62548   1.63391   1.63833   1.64510   1.65293
 Alpha virt. eigenvalues --    1.65589   1.66219   1.66751   1.67018   1.68874
 Alpha virt. eigenvalues --    1.69735   1.71658   1.72636   1.73551   1.74724
 Alpha virt. eigenvalues --    1.75299   1.75999   1.76919   1.77572   1.78803
 Alpha virt. eigenvalues --    1.79519   1.80211   1.80671   1.81618   1.82009
 Alpha virt. eigenvalues --    1.82456   1.82966   1.83156   1.83834   1.84134
 Alpha virt. eigenvalues --    1.84816   1.85045   1.85824   1.86456   1.87091
 Alpha virt. eigenvalues --    1.87382   1.87813   1.88084   1.88585   1.88722
 Alpha virt. eigenvalues --    1.89709   1.90190   1.90611   1.90819   1.91289
 Alpha virt. eigenvalues --    1.91801   1.92051   1.92795   1.93147   1.93549
 Alpha virt. eigenvalues --    1.94049   1.94534   1.94792   1.95147   1.95619
 Alpha virt. eigenvalues --    1.96566   1.96993   1.97349   1.98032   1.98212
 Alpha virt. eigenvalues --    1.99011   1.99705   2.00199   2.00610   2.00779
 Alpha virt. eigenvalues --    2.01965   2.03180   2.03598   2.04366   2.04570
 Alpha virt. eigenvalues --    2.04805   2.05713   2.06274   2.06932   2.07742
 Alpha virt. eigenvalues --    2.08106   2.09637   2.10170   2.11406   2.11515
 Alpha virt. eigenvalues --    2.12406   2.12542   2.12953   2.13551   2.14174
 Alpha virt. eigenvalues --    2.14666   2.15199   2.15388   2.15848   2.16129
 Alpha virt. eigenvalues --    2.16945   2.17349   2.17633   2.18129   2.18705
 Alpha virt. eigenvalues --    2.19758   2.20224   2.20708   2.21013   2.21144
 Alpha virt. eigenvalues --    2.21631   2.22650   2.23681   2.24932   2.25075
 Alpha virt. eigenvalues --    2.25701   2.26618   2.26742   2.27172   2.27939
 Alpha virt. eigenvalues --    2.28822   2.28923   2.29455   2.29888   2.30489
 Alpha virt. eigenvalues --    2.30879   2.32123   2.32211   2.32428   2.33165
 Alpha virt. eigenvalues --    2.33766   2.34404   2.34556   2.34887   2.35558
 Alpha virt. eigenvalues --    2.35944   2.36008   2.37530   2.38311   2.39018
 Alpha virt. eigenvalues --    2.39405   2.40010   2.40764   2.40970   2.42078
 Alpha virt. eigenvalues --    2.42305   2.43232   2.43299   2.43979   2.44698
 Alpha virt. eigenvalues --    2.44728   2.45701   2.46379   2.47131   2.47795
 Alpha virt. eigenvalues --    2.48103   2.48382   2.49254   2.50292   2.50731
 Alpha virt. eigenvalues --    2.50947   2.51961   2.52256   2.52453   2.53094
 Alpha virt. eigenvalues --    2.53552   2.54384   2.55213   2.56815   2.57010
 Alpha virt. eigenvalues --    2.58833   2.60719   2.61415   2.62017   2.62306
 Alpha virt. eigenvalues --    2.62587   2.63889   2.64592   2.65010   2.66067
 Alpha virt. eigenvalues --    2.66878   2.67656   2.68620   2.68813   2.70685
 Alpha virt. eigenvalues --    2.71056   2.71950   2.72837   2.73422   2.76236
 Alpha virt. eigenvalues --    2.77135   2.77446   2.77671   2.78683   2.79534
 Alpha virt. eigenvalues --    2.80461   2.80813   2.81114   2.82861   2.83089
 Alpha virt. eigenvalues --    2.84342   2.85547   2.92375   2.93172   2.96789
 Alpha virt. eigenvalues --    2.97685   2.97791   2.98747   3.00385   3.03253
 Alpha virt. eigenvalues --    3.05232   3.06604   3.07401   3.08303   3.09389
 Alpha virt. eigenvalues --    3.09941   3.11009   3.11776   3.14047   3.14771
 Alpha virt. eigenvalues --    3.14980   3.15432   3.16410   3.16788   3.17770
 Alpha virt. eigenvalues --    3.18235   3.18487   3.19136   3.19930   3.22083
 Alpha virt. eigenvalues --    3.23186   3.23918   3.24027   3.24802   3.25317
 Alpha virt. eigenvalues --    3.27405   3.28084   3.28302   3.28915   3.29836
 Alpha virt. eigenvalues --    3.30942   3.31227   3.31874   3.32137   3.32928
 Alpha virt. eigenvalues --    3.33797   3.34192   3.34481   3.36181   3.36616
 Alpha virt. eigenvalues --    3.38438   3.46502   3.49162   3.49571   3.52541
 Alpha virt. eigenvalues --    3.53398   3.56848   3.60307   3.66262   3.68244
 Alpha virt. eigenvalues --    3.74266   3.96394   3.97923   4.00264   4.08233
 Alpha virt. eigenvalues --    4.08475   4.18743   4.19762   4.21257   4.23327
 Alpha virt. eigenvalues --    4.25832   4.27607   4.28642   4.37538   4.40838
 Alpha virt. eigenvalues --    4.41554   4.43418   4.44677   4.46343   4.47338
 Alpha virt. eigenvalues --    4.47951   4.49764   5.48488   5.50207   5.51597
 Alpha virt. eigenvalues --    5.54702   5.69010   5.76311   5.90579   5.99828
 Alpha virt. eigenvalues --    6.06479   6.68381   6.69954   6.70310   6.70910
 Alpha virt. eigenvalues --    6.71292   6.72400   6.73435   6.74040   6.74424
 Alpha virt. eigenvalues --    6.75278   6.75741   6.76442   6.77198   6.77433
 Alpha virt. eigenvalues --    6.79652   6.80826   6.81752   6.84465   6.86169
 Alpha virt. eigenvalues --    6.86869   6.88265   6.90584   6.91106   6.92723
 Alpha virt. eigenvalues --    6.93541   6.94564   6.94977   6.96498   6.97574
 Alpha virt. eigenvalues --    6.98065   7.00008   7.00281   7.00847   7.01868
 Alpha virt. eigenvalues --    7.03626   7.05126   7.05496   7.08227   7.09628
 Alpha virt. eigenvalues --    7.11385   7.12828   7.65306   7.66908   7.69770
 Alpha virt. eigenvalues --    7.72032   7.74228   7.81247   8.48961   8.49753
 Alpha virt. eigenvalues --    8.50727   8.50968   8.51349   8.51910   8.55941
 Alpha virt. eigenvalues --    8.57621   8.81985   8.98043   9.83714   9.83991
 Alpha virt. eigenvalues --    9.84307   9.85094   9.85876   9.86977   9.87888
 Alpha virt. eigenvalues --    9.88776   9.88914   9.90930   9.91486   9.92683
 Alpha virt. eigenvalues --    9.93961   9.97565  10.00535  10.01092  10.02466
 Alpha virt. eigenvalues --   10.03257  10.05148  10.06255  10.08268  10.10345
 Alpha virt. eigenvalues --   10.24168  14.03878  14.07511  15.60261  15.64794
 Alpha virt. eigenvalues --   16.69856  16.70693  16.73456  16.75557  16.83637
 Alpha virt. eigenvalues --   16.87021  17.03203  17.04954  17.06585  17.08670
 Alpha virt. eigenvalues --   17.11122  17.11711  17.16601  17.17415  17.20820
 Alpha virt. eigenvalues --   17.21381  17.23625  17.25589  21.13644  21.21915
 Alpha virt. eigenvalues --   21.28884  25.47438  25.48996  25.49941  25.51904
 Alpha virt. eigenvalues --   25.62240  25.68553  26.12309  31.66965  31.69285
 Alpha virt. eigenvalues --   31.69517  31.70599  31.73034  31.75007  31.76317
 Alpha virt. eigenvalues --   31.79107  31.79280  31.80932  42.96445  42.99231
 Alpha virt. eigenvalues --   43.02940  43.06082  43.13688  61.76258  61.79275
 Alpha virt. eigenvalues --   62.97081  63.01511  78.02996  78.03682  78.06115
 Alpha virt. eigenvalues --   78.07945  78.15215  78.18059  82.15564  86.23812
 Alpha virt. eigenvalues --   86.30787  86.35960  89.28466  89.30329  89.32212
 Alpha virt. eigenvalues --   89.34252  89.36764  89.37497  89.42052  89.43014
 Alpha virt. eigenvalues --   89.46361  89.47357  89.49480  89.51464 121.83036
 Alpha virt. eigenvalues --  121.84198 121.84908 121.86264 121.94374 121.98364
 Alpha virt. eigenvalues --  239.15397 239.19455 257.26880 332.08760 332.11908
 Alpha virt. eigenvalues --  428.82115 428.87452 428.91627 431.64401 431.65132
 Alpha virt. eigenvalues --  431.67684 431.69607 431.77322 431.80247 590.20719
 Alpha virt. eigenvalues --  590.21635 590.22207 590.23279 590.29474 590.32640
 Alpha virt. eigenvalues --  772.94834 839.55850 839.594962068.551402529.93911
 Alpha virt. eigenvalues -- 2529.972115495.35474******************************
 Alpha virt. eigenvalues -- **********
          Condensed to atoms (all electrons):
 Mulliken atomic charges:
              1
     1  Pt  -0.259031
     2  H    0.070810
     3  Sn   0.485826
     4  Sn   0.481140
     5  Cl  -0.319998
     6  Cl  -0.292282
     7  Cl  -0.323772
     8  Cl  -0.301655
     9  Cl  -0.349543
    10  Cl  -0.331888
    11  P    0.095795
    12  P    0.147200
    13  C   -0.418263
    14  H    0.092855
    15  C   -0.380133
    16  H    0.093084
    17  C   -0.400763
    18  H    0.093661
    19  C   -0.287449
    20  H    0.074701
    21  H    0.070060
    22  C   -0.220994
    23  H    0.139250
    24  H    0.111322
    25  H    0.107278
    26  C   -0.375110
    27  H    0.080355
    28  C   -0.381874
    29  H    0.105041
    30  H    0.088516
    31  C   -0.091927
    32  H    0.123845
    33  H    0.069047
    34  H    0.082303
    35  C   -0.152668
    36  H    0.103112
    37  H    0.137643
    38  H    0.102347
    39  C   -0.161103
    40  H    0.106003
    41  H    0.110091
    42  H    0.138262
    43  C   -0.118356
    44  H    0.056686
    45  H    0.127878
    46  H    0.093405
    47  C   -0.137181
    48  H    0.129224
    49  H    0.113970
    50  H    0.108647
    51  H    0.108527
    52  H    0.081306
    53  H    0.082808
    54  H    0.091988
 Sum of Mulliken atomic charges =  -1.00000
 Mulliken charges with hydrogens summed into heavy atoms:
              1
     1  Pt  -0.188221
     3  Sn   0.485826
     4  Sn   0.481140
     5  Cl  -0.319998
     6  Cl  -0.292282
     7  Cl  -0.323772
     8  Cl  -0.301655
     9  Cl  -0.349543
    10  Cl  -0.331888
    11  P    0.095795
    12  P    0.147200
    13  C   -0.233420
    15  C   -0.178522
    17  C   -0.224293
    19  C   -0.142689
    22  C    0.136857
    26  C   -0.213449
    28  C   -0.188317
    31  C    0.183269
    35  C    0.190435
    39  C    0.193252
    43  C    0.159614
    47  C    0.214660
 Sum of Mulliken charges with hydrogens summed into heavy atoms =  -1.00000
 Electronic spatial extent (au):  <R**2>=          17715.9838
 Charge=             -1.0000 electrons
 Dipole moment (field-independent basis, Debye):
    X=             -4.0986    Y=             18.5055    Z=             10.6720  Tot=             21.7519
 Quadrupole moment (field-independent basis, Debye-Ang):
   XX=           -368.3814   YY=           -292.2636   ZZ=           -277.0624
   XY=            -17.9747   XZ=              6.9431   YZ=            -11.7007
 Traceless Quadrupole moment (field-independent basis, Debye-Ang):
   XX=            -55.8123   YY=             20.3055   ZZ=             35.5067
   XY=            -17.9747   XZ=              6.9431   YZ=            -11.7007
 Octapole moment (field-independent basis, Debye-Ang**2):
  XXX=            -78.2625  YYY=            164.1493  ZZZ=             32.6910  XYY=             19.8147
  XXY=            109.9444  XXZ=             48.4561  XZZ=             -1.4745  YZZ=             29.5491
  YYZ=             21.1370  XYZ=              9.6176
 Hexadecapole moment (field-independent basis, Debye-Ang**3):
 XXXX=         -10574.2417 YYYY=          -8027.1183 ZZZZ=          -6233.9618 XXXY=            -93.3097
 XXXZ=             31.7677 YYYX=            -66.7163 YYYZ=           -129.4523 ZZZX=              6.6490
 ZZZY=             -8.9697 XXYY=          -3040.1177 XXZZ=          -2864.6135 YYZZ=          -2350.4984
 XXYZ=             18.9076 YYXZ=             34.2637 ZZXY=            -40.8117
 N-N= 1.015843132992D+04 E-N=-9.843655987052D+04  KE= 3.248983565195D+04
 Calculating spin-rotation constants.
 Leave Link  601 at Sat Jun 15 01:50:06 2019, MaxMem=13421772800 cpu:   12320.3
 (Enter /home/scr/programs/g09/l9999.exe)
 1\1\GINC-NEQC33\SP\RPBEPBE\Gen\C12H31Cl6P2Pt1Sn2(1-)\GUEST1\15-Jun-201
 9\0\\#PBEPBE/gen scf=(maxcycle=500,conver=4) NMR=GIAO Scrf=(solvent=Di
 chloromethane)\\estrutura 44\\-1,1\Pt,0,0.004856,-0.367016,-0.134379\H
 ,0,-0.056791,-0.28623,-1.717974\Sn,0,-2.461288,0.557831,-0.604004\Sn,0
 ,1.879548,1.53031,-0.521588\Cl,0,-3.692152,-0.881194,-2.209447\Cl,0,-2
 .907054,2.72477,-1.707498\Cl,0,-4.27437,0.686845,1.110405\Cl,0,1.63217
 7,3.976033,-0.858091\Cl,0,3.654062,1.615391,1.253181\Cl,0,3.356624,1.0
 61496,-2.465196\P,0,0.0087,-0.3133,2.31474\P,0,0.674087,-2.584636,-0.6
 58186\C,0,0.971019,-2.719402,-2.491036\H,0,-0.013246,-2.528738,-2.9515
 67\C,0,2.222059,-3.250166,0.117778\H,0,2.011867,-3.36013,1.193052\C,0,
 -0.644667,-3.818279,-0.209607\H,0,-1.519691,-3.531581,-0.817104\C,0,-1
 .476723,-1.178327,3.020723\H,0,-2.348332,-0.696506,2.5481\H,0,-1.43604
 2,-2.196181,2.597727\C,0,-1.65757,-1.239364,4.539151\H,0,-2.610446,-1.
 736892,4.778083\H,0,-0.858531,-1.811251,5.032112\H,0,-1.692801,-0.2387
 5,4.995635\C,0,1.497904,-1.117423,3.099972\H,0,2.330018,-0.913093,2.40
 9873\C,0,0.0137,1.38851,3.063615\H,0,-0.079339,1.265871,4.153923\H,0,1
 .026903,1.780421,2.877313\C,0,-1.039031,2.367965,2.543448\H,0,-1.00019
 5,3.302032,3.126253\H,0,-0.856543,2.632103,1.491885\H,0,-2.061362,1.97
 0254,2.617422\C,0,1.613734,-3.983921,-3.067355\H,0,0.995086,-4.882052,
 -2.923947\H,0,1.756152,-3.856184,-4.152475\H,0,2.606363,-4.181215,-2.6
 31732\C,0,-0.358956,-5.319665,-0.324483\H,0,-0.162629,-5.63237,-1.3593
 41\H,0,0.499672,-5.626305,0.292755\H,0,-1.234443,-5.888167,0.028312\C,
 0,3.476097,-2.401142,-0.106823\H,0,3.382212,-1.40248,0.342892\H,0,4.35
 2322,-2.890633,0.34815\H,0,3.695279,-2.259435,-1.176047\C,0,1.913909,-
 0.696055,4.513882\H,0,2.766621,-1.31139,4.842874\H,0,2.244572,0.3524,4
 .539836\H,0,1.112217,-0.818356,5.256444\H,0,2.37383,-4.269084,-0.27558
 7\H,0,1.30289,-2.201714,3.056611\H,0,-0.912466,-3.570816,0.830001\H,0,
 1.586556,-1.837537,-2.733258\\Version=EM64L-G09RevA.02\State=1-A\HF=-3
 2989.2468966\RMSD=4.502e-05\Dipole=1.6125017,-7.2806161,4.1987037\Quad
 rupole=-41.4950641,15.0966681,26.398396,-13.3637817,-5.1620587,8.69919
 07\PG=C01 [X(C12H31Cl6P2Pt1Sn2)]\\@


 ALL MY ATTEMPTS TO ADAPT THE THEORETICAL FOUNDATIONS OF PHYSICS
 TO THESE NEW NOTIONS FAILED COMPLETELY. IT WAS AS IF THE GROUND HAD
 BEEN PULLED OUT FROM UNDER ONE WITH NO FIRM FOUNDATION TO BE SEEN ANYWHERE,
 UPON WHICH ONE COULD HAVE BUILT.  -- A.EINSTEIN
 Job cpu time:  1 days  4 hours 27 minutes 30.9 seconds.
 File lengths (MBytes):  RWF=   1102 Int=      0 D2E=      0 Chk=     80 Scr=      1
 Normal termination of Gaussian 09 at Sat Jun 15 01:50:06 2019.
