 Entering Gaussian System, Link 0=g09
 Input=estrutura28.com
 Output=estrutura28.log
 Initial command:
 /scr/programs/g09/l1.exe "/scr/guest/Gau-27085.inp" -scrdir="/scr/guest/"
 Entering Link 1 = /scr/programs/g09/l1.exe PID=     27086.
  
 Copyright (c) 1988,1990,1992,1993,1995,1998,2003,2009,2013,
            Gaussian, Inc.  All Rights Reserved.
  
 This is part of the Gaussian(R) 09 program.  It is based on
 the Gaussian(R) 03 system (copyright 2003, Gaussian, Inc.),
 the Gaussian(R) 98 system (copyright 1998, Gaussian, Inc.),
 the Gaussian(R) 94 system (copyright 1995, Gaussian, Inc.),
 the Gaussian 92(TM) system (copyright 1992, Gaussian, Inc.),
 the Gaussian 90(TM) system (copyright 1990, Gaussian, Inc.),
 the Gaussian 88(TM) system (copyright 1988, Gaussian, Inc.),
 the Gaussian 86(TM) system (copyright 1986, Carnegie Mellon
 University), and the Gaussian 82(TM) system (copyright 1983,
 Carnegie Mellon University). Gaussian is a federally registered
 trademark of Gaussian, Inc.
  
 This software contains proprietary and confidential information,
 including trade secrets, belonging to Gaussian, Inc.
  
 This software is provided under written license and may be
 used, copied, transmitted, or stored only in accord with that
 written license.
  
 The following legend is applicable only to US Government
 contracts under FAR:
  
                    RESTRICTED RIGHTS LEGEND
  
 Use, reproduction and disclosure by the US Government is
 subject to restrictions as set forth in subparagraphs (a)
 and (c) of the Commercial Computer Software - Restricted
 Rights clause in FAR 52.227-19.
  
 Gaussian, Inc.
 340 Quinnipiac St., Bldg. 40, Wallingford CT 06492
  
  
 ---------------------------------------------------------------
 Warning -- This program may not be used in any manner that
 competes with the business of Gaussian, Inc. or will provide
 assistance to any competitor of Gaussian, Inc.  The licensee
 of this program is prohibited from giving any competitor of
 Gaussian, Inc. access to this program.  By using this program,
 the user acknowledges that Gaussian, Inc. is engaged in the
 business of creating and licensing software in the field of
 computational chemistry and represents and warrants to the
 licensee that it is not a competitor of Gaussian, Inc. and that
 it will not use this program in any manner prohibited above.
 ---------------------------------------------------------------
  

 Cite this work as:
 Gaussian 09, Revision D.01,
 M. J. Frisch, G. W. Trucks, H. B. Schlegel, G. E. Scuseria, 
 M. A. Robb, J. R. Cheeseman, G. Scalmani, V. Barone, B. Mennucci, 
 G. A. Petersson, H. Nakatsuji, M. Caricato, X. Li, H. P. Hratchian, 
 A. F. Izmaylov, J. Bloino, G. Zheng, J. L. Sonnenberg, M. Hada, 
 M. Ehara, K. Toyota, R. Fukuda, J. Hasegawa, M. Ishida, T. Nakajima, 
 Y. Honda, O. Kitao, H. Nakai, T. Vreven, J. A. Montgomery, Jr., 
 J. E. Peralta, F. Ogliaro, M. Bearpark, J. J. Heyd, E. Brothers, 
 K. N. Kudin, V. N. Staroverov, T. Keith, R. Kobayashi, J. Normand, 
 K. Raghavachari, A. Rendell, J. C. Burant, S. S. Iyengar, J. Tomasi, 
 M. Cossi, N. Rega, J. M. Millam, M. Klene, J. E. Knox, J. B. Cross, 
 V. Bakken, C. Adamo, J. Jaramillo, R. Gomperts, R. E. Stratmann, 
 O. Yazyev, A. J. Austin, R. Cammi, C. Pomelli, J. W. Ochterski, 
 R. L. Martin, K. Morokuma, V. G. Zakrzewski, G. A. Voth, 
 P. Salvador, J. J. Dannenberg, S. Dapprich, A. D. Daniels, 
 O. Farkas, J. B. Foresman, J. V. Ortiz, J. Cioslowski, 
 and D. J. Fox, Gaussian, Inc., Wallingford CT, 2013.
 
 ******************************************
 Gaussian 09:  EM64L-G09RevD.01 24-Apr-2013
                 4-Feb-2020 
 ******************************************
 %mem=30Gb
 %nproc=24
 Will use up to   24 processors via shared memory.
 ----------------------------------------------------------------------
 #PBEPBE/gen scf=(maxcycle=500,conver=4) NMR=GIAO Scrf=(solvent=Dichlor
 omethane)
 ----------------------------------------------------------------------
 1/38=1/1;
 2/12=2,17=6,18=5,40=1/2;
 3/5=7,11=2,16=1,25=1,30=1,70=2201,72=9,74=1009/1,2,8,3;
 4//1;
 5/5=2,6=4,7=500,38=5,53=9/2;
 8/6=1,10=90,11=11/1;
 10/13=100,45=16/2;
 6/7=2,8=2,9=2,10=2,28=1/1;
 99/9=1/99;
 Leave Link    1 at Tue Feb  4 08:34:45 2020, MaxMem=  4026531840 cpu:         2.9
 (Enter /scr/programs/g09/l101.exe)
 ------------
 estrutura 28
 ------------
 Symbolic Z-matrix:
 Charge = -1 Multiplicity = 1
 Pt                    0.9087   -1.29169   0.24717 
 Cl                   -0.37351  -3.27548   0.81253 
 Cl                    2.95625  -2.60595   0.21023 
 Sn                    2.68162   0.54496  -0.24371 
 Cl                    4.16243   1.04573   1.59717 
 Cl                    4.26749   0.1985   -2.02784 
 Cl                    2.07312   2.82354  -0.86022 
 P                    -0.81444   0.10322   0.26335 
 O                    -2.34677  -0.29224   0.62968 
 O                    -0.55343   1.27959   1.35588 
 O                    -0.98597   0.91391  -1.14746 
 C                    -3.1225   -1.44365   0.56806 
 C                    -3.69271  -1.89132   1.76073 
 C                    -3.38715  -2.07976  -0.64569 
 C                    -4.53462  -3.00516   1.7378 
 H                    -3.4641   -1.37093   2.69273 
 C                    -4.22747  -3.1964   -0.6544 
 H                    -2.93966  -1.71032  -1.5683 
 C                    -4.80215  -3.66419   0.53145 
 H                    -4.97915  -3.36233   2.66955 
 H                    -4.43305  -3.70355  -1.60088 
 H                    -5.45695  -4.53838   0.51731 
 C                    -2.08591   1.0592   -1.98188 
 C                    -2.11311   0.31211  -3.16526 
 C                    -3.10416   1.96898  -1.67898 
 C                    -3.17786   0.4775   -4.05434 
 H                    -1.29822  -0.38557  -3.37071 
 C                    -4.16252   2.12576  -2.57788 
 H                    -3.05927   2.54909  -0.75579 
 C                    -4.20578   1.38355  -3.76461 
 H                    -3.20163  -0.10613  -4.97862 
 H                    -4.95913   2.83996  -2.34876 
 H                    -5.03546   1.51347  -4.46165 
 C                    -1.38272   2.35983   1.66361 
 C                    -2.40012   2.20128   2.61076 
 C                    -1.12445   3.59852   1.07314 
 C                    -3.17394   3.31069   2.96415 
 H                    -2.5704    1.22389   3.06126 
 C                    -1.90475   4.69941   1.43908 
 H                    -0.31228   3.68437   0.34633 
 C                    -2.9296    4.55884   2.38255 
 H                    -3.97223   3.19534   3.70361 
 H                    -1.70626   5.67393   0.98578 
 H                    -3.53517   5.4236    2.66825 
 
 NAtoms=     44 NQM=       44 NQMF=       0 NMMI=      0 NMMIF=      0
                NMic=       0 NMicF=      0.
                    Isotopes and Nuclear Properties:
 (Nuclear quadrupole moments (NQMom) in fm**2, nuclear magnetic moments (NMagM)
  in nuclear magnetons)

  Atom         1           2           3           4           5           6           7           8           9          10
 IAtWgt=         195          35          35         118          35          35          35          31          16          16
 AtmWgt= 194.9648000  34.9688527  34.9688527 117.9018000  34.9688527  34.9688527  34.9688527  30.9737634  15.9949146  15.9949146
 NucSpn=           1           3           3           0           3           3           3           1           0           0
 AtZEff=   0.0000000   0.0000000   0.0000000   0.0000000   0.0000000   0.0000000   0.0000000   0.0000000   0.0000000   0.0000000
 NQMom=    0.0000000  -8.1650000  -8.1650000   0.0000000  -8.1650000  -8.1650000  -8.1650000   0.0000000   0.0000000   0.0000000
 NMagM=    0.6095000   0.8218740   0.8218740   0.0000000   0.8218740   0.8218740   0.8218740   1.1316000   0.0000000   0.0000000
 AtZNuc=  78.0000000  17.0000000  17.0000000  50.0000000  17.0000000  17.0000000  17.0000000  15.0000000   8.0000000   8.0000000

  Atom        11          12          13          14          15          16          17          18          19          20
 IAtWgt=          16          12          12          12          12           1          12           1          12           1
 AtmWgt=  15.9949146  12.0000000  12.0000000  12.0000000  12.0000000   1.0078250  12.0000000   1.0078250  12.0000000   1.0078250
 NucSpn=           0           0           0           0           0           1           0           1           0           1
 AtZEff=   0.0000000   0.0000000   0.0000000   0.0000000   0.0000000   0.0000000   0.0000000   0.0000000   0.0000000   0.0000000
 NQMom=    0.0000000   0.0000000   0.0000000   0.0000000   0.0000000   0.0000000   0.0000000   0.0000000   0.0000000   0.0000000
 NMagM=    0.0000000   0.0000000   0.0000000   0.0000000   0.0000000   2.7928460   0.0000000   2.7928460   0.0000000   2.7928460
 AtZNuc=   8.0000000   6.0000000   6.0000000   6.0000000   6.0000000   1.0000000   6.0000000   1.0000000   6.0000000   1.0000000

  Atom        21          22          23          24          25          26          27          28          29          30
 IAtWgt=           1           1          12          12          12          12           1          12           1          12
 AtmWgt=   1.0078250   1.0078250  12.0000000  12.0000000  12.0000000  12.0000000   1.0078250  12.0000000   1.0078250  12.0000000
 NucSpn=           1           1           0           0           0           0           1           0           1           0
 AtZEff=   0.0000000   0.0000000   0.0000000   0.0000000   0.0000000   0.0000000   0.0000000   0.0000000   0.0000000   0.0000000
 NQMom=    0.0000000   0.0000000   0.0000000   0.0000000   0.0000000   0.0000000   0.0000000   0.0000000   0.0000000   0.0000000
 NMagM=    2.7928460   2.7928460   0.0000000   0.0000000   0.0000000   0.0000000   2.7928460   0.0000000   2.7928460   0.0000000
 AtZNuc=   1.0000000   1.0000000   6.0000000   6.0000000   6.0000000   6.0000000   1.0000000   6.0000000   1.0000000   6.0000000

  Atom        31          32          33          34          35          36          37          38          39          40
 IAtWgt=           1           1           1          12          12          12          12           1          12           1
 AtmWgt=   1.0078250   1.0078250   1.0078250  12.0000000  12.0000000  12.0000000  12.0000000   1.0078250  12.0000000   1.0078250
 NucSpn=           1           1           1           0           0           0           0           1           0           1
 AtZEff=   0.0000000   0.0000000   0.0000000   0.0000000   0.0000000   0.0000000   0.0000000   0.0000000   0.0000000   0.0000000
 NQMom=    0.0000000   0.0000000   0.0000000   0.0000000   0.0000000   0.0000000   0.0000000   0.0000000   0.0000000   0.0000000
 NMagM=    2.7928460   2.7928460   2.7928460   0.0000000   0.0000000   0.0000000   0.0000000   2.7928460   0.0000000   2.7928460
 AtZNuc=   1.0000000   1.0000000   1.0000000   6.0000000   6.0000000   6.0000000   6.0000000   1.0000000   6.0000000   1.0000000

  Atom        41          42          43          44
 IAtWgt=          12           1           1           1
 AtmWgt=  12.0000000   1.0078250   1.0078250   1.0078250
 NucSpn=           0           1           1           1
 AtZEff=   0.0000000   0.0000000   0.0000000   0.0000000
 NQMom=    0.0000000   0.0000000   0.0000000   0.0000000
 NMagM=    0.0000000   2.7928460   2.7928460   2.7928460
 AtZNuc=   6.0000000   1.0000000   1.0000000   1.0000000
 Leave Link  101 at Tue Feb  4 08:34:46 2020, MaxMem=  4026531840 cpu:         9.5
 (Enter /scr/programs/g09/l202.exe)
                          Input orientation:                          
 ---------------------------------------------------------------------
 Center     Atomic      Atomic             Coordinates (Angstroms)
 Number     Number       Type             X           Y           Z
 ---------------------------------------------------------------------
      1         78           0        0.908695   -1.291686    0.247169
      2         17           0       -0.373505   -3.275477    0.812527
      3         17           0        2.956248   -2.605954    0.210229
      4         50           0        2.681624    0.544959   -0.243712
      5         17           0        4.162433    1.045734    1.597166
      6         17           0        4.267488    0.198504   -2.027840
      7         17           0        2.073118    2.823535   -0.860215
      8         15           0       -0.814435    0.103221    0.263346
      9          8           0       -2.346767   -0.292242    0.629677
     10          8           0       -0.553426    1.279593    1.355877
     11          8           0       -0.985969    0.913909   -1.147463
     12          6           0       -3.122500   -1.443645    0.568060
     13          6           0       -3.692707   -1.891321    1.760730
     14          6           0       -3.387155   -2.079762   -0.645689
     15          6           0       -4.534616   -3.005165    1.737799
     16          1           0       -3.464103   -1.370931    2.692728
     17          6           0       -4.227465   -3.196404   -0.654404
     18          1           0       -2.939657   -1.710321   -1.568295
     19          6           0       -4.802148   -3.664189    0.531450
     20          1           0       -4.979146   -3.362334    2.669550
     21          1           0       -4.433050   -3.703554   -1.600878
     22          1           0       -5.456945   -4.538381    0.517310
     23          6           0       -2.085906    1.059195   -1.981876
     24          6           0       -2.113114    0.312105   -3.165264
     25          6           0       -3.104158    1.968982   -1.678980
     26          6           0       -3.177861    0.477501   -4.054344
     27          1           0       -1.298223   -0.385572   -3.370710
     28          6           0       -4.162516    2.125761   -2.577881
     29          1           0       -3.059270    2.549086   -0.755792
     30          6           0       -4.205785    1.383546   -3.764610
     31          1           0       -3.201634   -0.106125   -4.978621
     32          1           0       -4.959128    2.839957   -2.348757
     33          1           0       -5.035462    1.513473   -4.461652
     34          6           0       -1.382719    2.359826    1.663609
     35          6           0       -2.400116    2.201279    2.610758
     36          6           0       -1.124445    3.598515    1.073137
     37          6           0       -3.173938    3.310687    2.964150
     38          1           0       -2.570400    1.223888    3.061259
     39          6           0       -1.904745    4.699405    1.439084
     40          1           0       -0.312276    3.684373    0.346327
     41          6           0       -2.929597    4.558840    2.382549
     42          1           0       -3.972232    3.195344    3.703613
     43          1           0       -1.706256    5.673928    0.985784
     44          1           0       -3.535167    5.423595    2.668249
 ---------------------------------------------------------------------
                    Distance matrix (angstroms):
                    1          2          3          4          5
     1  Pt   0.000000
     2  Cl   2.428805   0.000000
     3  Cl   2.433339   3.449388   0.000000
     4  Sn   2.599520   5.004516   3.195267   0.000000
     5  Cl   4.227628   6.313736   4.088191   2.415037   0.000000
     6  Cl   4.321785   6.455621   3.820116   2.412076   3.724178
     7  Cl   4.417830   6.781001   5.604027   2.437676   3.683006
     8  P    2.217026   3.451321   4.643329   3.560150   5.237998
     9  O    3.426840   3.581465   5.800963   5.171888   6.715348
    10  O    3.158877   4.590889   5.359832   3.682923   4.727815
    11  O    3.224810   4.665579   5.456541   3.795277   5.835787
    12  C    4.046801   3.312453   6.199208   6.188810   7.767002
    13  C    4.880915   3.719150   6.864645   7.112337   8.387864
    14  C    4.457868   3.555027   6.422479   6.624260   8.473217
    15  C    5.898103   4.271304   7.655448   8.282746   9.595219
    16  H    5.010828   4.088306   6.993496   7.075541   8.074935
    17  C    5.551660   4.124457   7.259611   7.867781   9.667248
    18  H    4.275626   3.834470   6.223102   6.199968   8.249586
    19  C    6.190583   4.454546   7.836820   8.621174  10.182477
    20  H    6.694937   4.966690   8.342113   9.079726  10.205368
    21  H    6.145456   4.742118   7.686778   8.397044  10.327902
    22  H    7.150900   5.246279   8.637731   9.625789  11.175011
    23  C    4.411680   5.434187   6.607720   5.100490   7.200796
    24  C    4.831995   5.632034   6.753329   5.619537   7.912107
    25  C    5.517698   6.416262   7.824811   6.128875   8.024267
    26  C    6.191363   6.755419   8.082176   6.989924   9.281291
    27  H    4.333656   5.167797   5.987800   5.146182   7.519787
    28  C    6.736248   7.417873   8.991078   7.401995   9.375620
    29  H    5.612683   6.602915   7.980858   6.102181   7.742704
    30  C    7.029164   7.572519   9.110992   7.780511   9.944337
    31  H    6.753461   7.181957   8.431656   7.579974   9.939680
    32  H    7.631556   8.271650   9.942813   8.251019  10.099130
    33  H    8.085476   8.513803  10.132304   8.847737  11.024034
    34  C    4.537667   5.787875   6.752623   4.842572   5.699120
    35  C    5.360559   6.110290   7.587006   6.059330   6.740156
    36  C    5.360032   6.919797   7.476102   5.054152   5.894266
    37  C    6.725453   7.473250   8.953765   7.226841   7.798782
    38  H    5.133353   5.488846   7.303417   6.242398   6.892485
    39  C    6.725272   8.144692   8.860452   6.412956   7.084134
    40  H    5.124623   6.975715   7.090133   4.378071   5.343223
    41  C    7.315804   8.388987   9.523467   7.382025   7.953341
    42  H    7.476891   7.948631   9.688273   8.178002   8.673564
    43  H    7.476851   9.049757   9.533985   6.860865   7.499032
    44  H    8.408599   9.440003  10.613858   8.421941   8.919974
                    6          7          8          9         10
     6  Cl   0.000000
     7  Cl   3.615162   0.000000
     8  P    5.575352   4.123161   0.000000
     9  O    7.145040   5.609209   1.624386   0.000000
    10  O    5.988281   3.767433   1.626530   2.492810   0.000000
    11  O    5.374540   3.617623   1.636160   2.542597   2.566618
    12  C    8.002954   6.873372   2.795140   1.389708   3.825810
    13  C    9.060096   7.895819   3.808518   2.376529   4.480367
    14  C    8.105208   7.341861   3.494374   2.429855   4.829239
    15  C   10.095572   9.186162   5.067132   3.657126   5.861304
    16  H    9.193715   7.802420   3.885326   2.582284   4.157462
    17  C    9.250727   8.716615   4.835138   3.690535   6.129791
    18  H    7.469788   6.795965   3.340720   2.682079   4.815025
    19  C   10.184727   9.554924   5.492460   4.172358   6.570563
    20  H   10.965641  10.022906   5.928297   4.529455   6.546772
    21  H    9.545036   9.245631   5.573261   4.578755   6.973208
    22  H   11.112176  10.620604   6.569769   5.264554   7.654836
    23  C    6.411592   4.654944   2.751644   2.952057   3.679357
    24  C    6.482185   5.398617   3.672270   3.849858   4.879485
    25  C    7.589299   5.310821   3.535043   3.319137   4.023910
    26  C    7.721255   6.578686   4.936427   4.819053   6.066424
    27  H    5.755135   5.288373   3.698558   4.136575   5.066372
    28  C    8.664977   6.505413   4.834551   4.408187   5.405181
    29  H    7.799021   5.140781   3.472777   3.240421   3.514258
    30  C    8.730238   7.066378   5.418941   5.057071   6.290463
    31  H    8.036647   7.305285   5.763746   5.676129   7.004219
    32  H    9.602640   7.188081   5.611710   5.050363   5.963997
    33  H    9.705538   8.075798   6.490877   6.034179   7.347584
    34  C    7.086815   4.304361   2.715870   3.005307   1.396184
    35  C    8.365682   5.696023   3.525135   3.185149   2.415470
    36  C    7.088658   3.816131   3.601243   4.102282   2.404871
    37  C    9.485804   6.511120   4.811386   4.372079   3.684965
    38  H    8.585281   6.284830   3.488212   2.874240   2.641896
    39  C    8.388929   4.962767   4.867858   5.076127   3.678057
    40  H    6.225929   2.808361   3.617140   4.475814   2.619220
    41  C    9.500636   6.209183   5.368191   5.190881   4.177763
    42  H   10.474903   7.583734   5.600745   4.924883   4.568391
    43  H    8.645682   5.080957   5.687709   6.011011   4.558088
    44  H   10.499345   7.117811   6.441453   6.183758   5.271229
                   11         12         13         14         15
    11  O    0.000000
    12  C    3.614671   0.000000
    13  C    4.863469   1.395712   0.000000
    14  C    3.870341   1.395662   2.433048   0.000000
    15  C    6.023020   2.408465   1.396419   2.802508   0.000000
    16  H    5.109668   2.153182   1.091644   3.413706   2.174536
    17  C    5.257859   2.405729   2.796798   1.397529   2.419411
    18  H    3.298572   2.160685   3.417931   1.089928   3.892399
    19  C    6.192007   2.784488   2.425912   2.428635   1.400416
    20  H    6.985793   3.397758   2.155170   3.894899   1.092399
    21  H    5.780045   3.395441   3.890078   2.154758   3.412452
    22  H    7.244899   3.876803   3.415488   3.417807   2.165880
    23  C    1.388242   3.720337   5.029359   3.651259   6.029194
    24  C    2.388335   4.247261   5.622777   3.700333   6.395935
    25  C    2.425369   4.086019   5.203838   4.188091   6.201833
    26  C    3.666715   5.006045   6.300117   4.266419   6.893378
    27  H    2.594028   4.467820   5.859395   3.828793   6.590400
    28  C    3.688513   4.870240   5.931375   4.692651   6.714905
    29  H    2.669417   4.206956   5.143087   4.641752   6.264531
    30  C    4.175791   5.285692   6.443399   4.732053   7.045951
    31  H    4.541741   5.706215   6.989058   4.764867   7.435830
    32  H    4.575889   5.498206   6.393489   5.438306   7.144620
    33  H    5.267041   6.140193   7.218979   5.494527   7.687791
    34  C    3.185940   4.323593   4.839187   5.390785   6.222788
    35  C    4.216795   4.240274   4.375239   5.468638   5.694314
    36  C    3.486739   5.447082   6.099758   6.349571   7.461879
    37  C    5.238045   5.324243   5.364534   6.491020   6.576121
    38  H    4.507754   3.692775   3.557454   5.032162   4.847121
    39  C    4.675934   6.322869   6.836515   7.245752   8.146524
    40  H    3.218811   5.851760   6.672047   6.607891   8.032077
    41  C    5.433617   6.273708   6.524843   7.310993   7.759250
    42  H    6.136420   5.663387   5.452255   6.861886   6.528937
    43  H    5.265675   7.269119   7.859995   8.099805   9.159247
    44  H    6.433921   7.193057   7.372680   8.203929   8.538655
                   16         17         18         19         20
    16  H    0.000000
    17  C    3.888234   0.000000
    18  H    4.306570   2.168430   0.000000
    19  C    3.423524   1.398332   3.419854   0.000000
    20  H    2.502315   3.411924   4.984776   2.166545   0.000000
    21  H    4.981470   1.093288   2.490836   2.164395   4.318704
    22  H    4.328580   2.164587   4.322547   1.092324   2.498703
    23  C    5.445811   4.945562   2.927483   6.000428   7.039639
    24  C    6.242904   4.804637   2.706232   6.058672   7.467308
    25  C    5.513294   5.384495   3.684641   6.285045   7.130794
    26  C    7.001544   5.114571   3.320203   6.389164   7.949825
    27  H    6.513620   4.884624   2.774521   6.184955   7.674311
    28  C    6.363486   5.659454   4.150924   6.603074   7.636858
    29  H    5.236670   5.863925   4.337859   6.580228   7.096744
    30  C    7.059352   5.536226   3.999862   6.655179   8.032427
    31  H    7.779346   5.413040   3.777883   6.751470   8.500410
    32  H    6.736709   6.312196   5.039089   7.115065   7.978234
    33  H    7.872364   6.109905   4.812147   7.196783   8.638907
    34  C    4.394291   6.658638   5.425436   7.018763   6.832958
    35  C    3.728200   6.567760   5.749452   6.670607   6.132589
    36  C    5.726471   7.667076   6.201282   8.158786   8.115459
    37  C    4.698448   7.519713   6.768195   7.564258   6.919160
    38  H    2.769044   6.007578   5.493515   5.939186   5.195087
    39  C    6.391573   8.492439   7.155415   8.897665   8.715367
    40  H    6.402789   7.979678   6.298542   8.613628   8.765450
    41  C    5.961887   8.429197   7.410239   8.634305   8.187064
    42  H    4.704354   7.740278   7.274942   7.602932   6.714633
    43  H    7.458802   9.366403   7.910230   9.848421   9.757095
    44  H    6.794942   9.264107   8.318395   9.421198   8.903798
                   21         22         23         24         25
    21  H    0.000000
    22  H    2.496401   0.000000
    23  C    5.323347   6.995905   0.000000
    24  C    4.894377   6.947645   1.399747   0.000000
    25  C    5.826639   7.259826   1.398676   2.436483   0.000000
    26  C    5.007616   7.159142   2.413681   1.396963   2.805762
    27  H    4.895758   7.046807   2.153290   1.092249   3.415739
    28  C    5.916810   7.461001   2.409376   2.799003   1.397399
    29  H    6.457317   7.589586   2.161133   3.421235   1.091243
    30  C    5.532809   7.414139   2.788769   2.426206   2.430261
    31  H    5.085964   7.411921   3.403425   2.155935   3.899128
    32  H    6.607088   7.931080   3.400165   3.893137   2.155948
    33  H    5.980326   7.848098   3.880147   3.415263   3.417702
    34  C    7.531665   8.093119   3.933913   5.295720   3.780081
    35  C    7.532447   7.690887   4.742929   6.083895   4.353331
    36  C    8.450884   9.235181   4.087256   5.453623   3.761488
    37  C    8.463121   8.532703   5.542220   6.905545   4.833601
    38  H    7.034534   6.928749   5.069030   6.309520   4.828036
    39  C    9.286733   9.940044   4.998691   6.363320   4.314641
    40  H    8.680660   9.701059   3.931648   5.191000   3.852147
    41  C    9.294903   9.624242   5.657520   7.034176   4.820151
    42  H    8.714630   8.495140   6.359728   7.677946   5.588365
    43  H   10.102643  10.889371   5.499718   6.793076   4.773020
    44  H   10.116150  10.371149   6.540031   7.885394   5.569427
                   26         27         28         29         30
    26  C    0.000000
    27  H    2.178369   0.000000
    28  C    2.422034   3.890957   0.000000
    29  H    3.896918   4.307122   2.171719   0.000000
    30  C    1.400532   3.426201   1.400386   3.424320   0.000000
    31  H    1.093377   2.507278   3.415869   4.990260   2.168239
    32  H    3.415134   4.985043   1.094150   2.496318   2.166402
    33  H    2.165599   4.331683   2.164607   4.325648   1.091381
    34  C    6.281773   5.734869   5.076642   2.949601   6.195836
    35  C    6.928195   6.609382   5.480304   3.448059   6.676410
    36  C    6.344155   5.970839   4.972807   2.861788   6.148540
    37  C    7.568766   7.570409   5.752864   3.798836   7.074941
    38  H    7.180384   6.751224   5.928584   4.070015   7.020859
    39  C    7.044363   7.025595   5.277990   3.282420   6.585449
    40  H    6.153171   5.599367   5.079824   3.170098   6.111712
    41  C    7.625782   7.759419   5.660904   3.728956   7.035532
    42  H    8.258547   8.367755   6.374746   4.597547   7.688401
    43  H    7.387243   7.474160   5.596643   3.824705   6.871773
    44  H    8.353728   8.672910   6.228255   4.495924   7.625838
                   31         32         33         34         35
    31  H    0.000000
    32  H    4.322542   0.000000
    33  H    2.500656   2.495939   0.000000
    34  C    7.314956   5.396324   7.181759   0.000000
    35  C    7.972780   5.617227   7.578727   1.399044   0.000000
    36  C    7.393433   5.195148   7.090652   1.396321   2.438008
    37  C    8.646559   5.624542   7.863700   2.409151   1.398025
    38  H    8.173559   6.130740   7.921779   2.157398   1.089606
    39  C    8.121698   5.209083   7.400692   2.407603   2.803363
    40  H    7.146421   5.437807   7.080816   2.153022   3.418522
    41  C    8.719101   5.427597   7.781518   2.783050   2.427040
    42  H    9.320660   6.142593   8.404207   3.400777   2.157324
    43  H    8.439153   5.452681   7.620207   3.398146   3.896315
    44  H    9.442652   5.820069   8.268944   3.876727   3.416865
                   36         37         38         39         40
    36  C    0.000000
    37  C    2.803426   0.000000
    38  H    3.417933   2.174493   0.000000
    39  C    1.398122   2.421821   3.892784   0.000000
    40  H    1.093272   3.896376   4.303948   2.181826   0.000000
    41  C    2.428036   1.398516   3.422218   1.400074   3.429470
    42  H    3.897671   1.094250   2.502876   3.415376   4.990571
    43  H    2.157191   3.413639   4.985699   1.092966   2.512054
    44  H    3.418608   2.163891   4.326982   2.166466   4.336270
                   41         42         43         44
    41  C    0.000000
    42  H    2.165968   0.000000
    43  H    2.165857   4.320257   0.000000
    44  H    1.093682   2.495618   2.497653   0.000000
 Stoichiometry    C18H15Cl5O3PPtSn(1-)
 Framework group  C1[X(C18H15Cl5O3PPtSn)]
 Deg. of freedom   126
 Full point group                 C1      NOp   1
 Largest Abelian subgroup         C1      NOp   1
 Largest concise Abelian subgroup C1      NOp   1
                         Standard orientation:                         
 ---------------------------------------------------------------------
 Center     Atomic      Atomic             Coordinates (Angstroms)
 Number     Number       Type             X           Y           Z
 ---------------------------------------------------------------------
      1         78           0       -0.908695   -1.291686   -0.247169
      2         17           0        0.373505   -3.275477   -0.812527
      3         17           0       -2.956248   -2.605954   -0.210229
      4         50           0       -2.681624    0.544959    0.243712
      5         17           0       -4.162433    1.045734   -1.597166
      6         17           0       -4.267488    0.198504    2.027840
      7         17           0       -2.073118    2.823535    0.860215
      8         15           0        0.814435    0.103221   -0.263346
      9          8           0        2.346767   -0.292242   -0.629677
     10          8           0        0.553426    1.279593   -1.355877
     11          8           0        0.985969    0.913909    1.147463
     12          6           0        3.122500   -1.443645   -0.568060
     13          6           0        3.692707   -1.891321   -1.760730
     14          6           0        3.387155   -2.079762    0.645689
     15          6           0        4.534616   -3.005165   -1.737799
     16          1           0        3.464103   -1.370931   -2.692728
     17          6           0        4.227465   -3.196404    0.654404
     18          1           0        2.939657   -1.710321    1.568295
     19          6           0        4.802148   -3.664189   -0.531450
     20          1           0        4.979146   -3.362334   -2.669550
     21          1           0        4.433050   -3.703554    1.600878
     22          1           0        5.456945   -4.538381   -0.517310
     23          6           0        2.085906    1.059195    1.981876
     24          6           0        2.113114    0.312105    3.165264
     25          6           0        3.104158    1.968982    1.678980
     26          6           0        3.177861    0.477501    4.054344
     27          1           0        1.298223   -0.385572    3.370710
     28          6           0        4.162516    2.125761    2.577881
     29          1           0        3.059270    2.549086    0.755792
     30          6           0        4.205785    1.383546    3.764610
     31          1           0        3.201634   -0.106125    4.978621
     32          1           0        4.959128    2.839957    2.348757
     33          1           0        5.035462    1.513473    4.461652
     34          6           0        1.382719    2.359826   -1.663609
     35          6           0        2.400116    2.201279   -2.610758
     36          6           0        1.124445    3.598515   -1.073137
     37          6           0        3.173938    3.310687   -2.964150
     38          1           0        2.570400    1.223888   -3.061259
     39          6           0        1.904745    4.699405   -1.439084
     40          1           0        0.312276    3.684373   -0.346327
     41          6           0        2.929597    4.558840   -2.382549
     42          1           0        3.972232    3.195344   -3.703613
     43          1           0        1.706256    5.673928   -0.985784
     44          1           0        3.535167    5.423595   -2.668249
 ---------------------------------------------------------------------
 Rotational constants (GHZ):      0.1097346      0.0737261      0.0603161
 Leave Link  202 at Tue Feb  4 08:34:46 2020, MaxMem=  4026531840 cpu:         2.9
 (Enter /scr/programs/g09/l301.exe)
 General basis read from cards:  (5D, 7F)
 Centers:      16     18     20     21     22     27     29     31     32     33
 Centers:      38     40     42     43     44
 S 5 1.00
     Exponent=  2.8295215633D+02 Coefficients=  4.3000000000D-04
     Exponent=  8.7062201949D+01 Coefficients=  5.1000000000D-04
     Exponent=  2.6788369830D+01 Coefficients=  6.1600000000D-03
     Exponent=  8.2425753324D+00 Coefficients=  1.3030000000D-02
     Exponent=  2.5361770254D+00 Coefficients=  9.9490000000D-02
 S 1 1.00
     Exponent=  7.8036216165D-01 Coefficients=  1.0000000000D+00
 S 1 1.00
     Exponent=  2.4011143435D-01 Coefficients=  1.0000000000D+00
 P 1 1.00
     Exponent=  8.8150000000D-01 Coefficients=  1.0000000000D+00
 P 1 1.00
     Exponent=  1.7989200000D-01 Coefficients=  1.0000000000D+00
 ****
 Centers:      12     13     14     15     17     19     23     24     25     26
 Centers:      28     30     34     35     36     37     39     41
 S 6 1.00
     Exponent=  8.8461235339D+03 Coefficients=  5.3000000000D-04
     Exponent=  2.9487078446D+03 Coefficients=  7.7000000000D-04
     Exponent=  9.8290261488D+02 Coefficients=  4.0500000000D-03
     Exponent=  3.2763420496D+02 Coefficients=  1.4030000000D-02
     Exponent=  1.0921140165D+02 Coefficients=  5.3450000000D-02
     Exponent=  3.6403800551D+01 Coefficients=  1.7027000000D-01
 S 1 1.00
     Exponent=  1.2134600184D+01 Coefficients=  1.0000000000D+00
 S 1 1.00
     Exponent=  4.0448667279D+00 Coefficients=  1.0000000000D+00
 S 1 1.00
     Exponent=  1.3482889093D+00 Coefficients=  1.0000000000D+00
 S 1 1.00
     Exponent=  4.4942963643D-01 Coefficients=  1.0000000000D+00
 S 1 1.00
     Exponent=  1.4980987881D-01 Coefficients=  1.0000000000D+00
 P 4 1.00
     Exponent=  3.7294093393D+01 Coefficients=  3.9600000000D-03
     Exponent=  1.1475105659D+01 Coefficients=  1.8890000000D-02
     Exponent=  3.5308017414D+00 Coefficients=  9.4610000000D-02
     Exponent=  1.0864005358D+00 Coefficients=  3.1889000000D-01
 P 1 1.00
     Exponent=  3.3427708794D-01 Coefficients=  1.0000000000D+00
 P 1 1.00
     Exponent=  1.0285448860D-01 Coefficients=  1.0000000000D+00
 D 1 1.00
     Exponent=  4.7750000000D-01 Coefficients=  1.0000000000D+00
 D 1 1.00
     Exponent=  1.1998000000D-01 Coefficients=  1.0000000000D+00
 ****
 Centers:       9     10     11
 S 6 1.00
     Exponent=  1.6178118231D+04 Coefficients=  6.0000000000D-04
     Exponent=  5.3927060771D+03 Coefficients=  7.8000000000D-04
     Exponent=  1.7975686924D+03 Coefficients=  4.1000000000D-03
     Exponent=  5.9918956413D+02 Coefficients=  1.3880000000D-02
     Exponent=  1.9972985471D+02 Coefficients=  5.2770000000D-02
     Exponent=  6.6576618236D+01 Coefficients=  1.6924000000D-01
 S 1 1.00
     Exponent=  2.2192206079D+01 Coefficients=  1.0000000000D+00
 S 1 1.00
     Exponent=  7.3974020263D+00 Coefficients=  1.0000000000D+00
 S 1 1.00
     Exponent=  2.4658006754D+00 Coefficients=  1.0000000000D+00
 S 1 1.00
     Exponent=  8.2193355847D-01 Coefficients=  1.0000000000D+00
 S 1 1.00
     Exponent=  2.7397785282D-01 Coefficients=  1.0000000000D+00
 P 4 1.00
     Exponent=  7.3854398670D+01 Coefficients=  4.0200000000D-03
     Exponent=  2.2724430360D+01 Coefficients=  2.0130000000D-02
     Exponent=  6.9921324184D+00 Coefficients=  1.0470000000D-01
     Exponent=  2.1514253595D+00 Coefficients=  3.3605000000D-01
 P 1 1.00
     Exponent=  6.6197703370D-01 Coefficients=  1.0000000000D+00
 P 1 1.00
     Exponent=  2.0368524114D-01 Coefficients=  1.0000000000D+00
 D 1 1.00
     Exponent=  9.2880000000D-01 Coefficients=  1.0000000000D+00
 D 1 1.00
     Exponent=  2.2975000000D-01 Coefficients=  1.0000000000D+00
 ****
 Centers:       8
 S 7 1.00
     Exponent=  5.9538004301D+04 Coefficients=  9.5000000000D-04
     Exponent=  2.1650183382D+04 Coefficients=  6.1000000000D-04
     Exponent=  7.8727939572D+03 Coefficients=  3.7500000000D-03
     Exponent=  2.8628341663D+03 Coefficients=  9.6300000000D-03
     Exponent=  1.0410306059D+03 Coefficients=  3.2430000000D-02
     Exponent=  3.7855658397D+02 Coefficients=  9.9500000000D-02
     Exponent=  1.3765693962D+02 Coefficients=  2.6570000000D-01
 S 1 1.00
     Exponent=  5.0057068954D+01 Coefficients=  1.0000000000D+00
 S 1 1.00
     Exponent=  1.8202570529D+01 Coefficients=  1.0000000000D+00
 S 1 1.00
     Exponent=  6.6191165560D+00 Coefficients=  1.0000000000D+00
 S 1 1.00
     Exponent=  2.4069514749D+00 Coefficients=  1.0000000000D+00
 S 1 1.00
     Exponent=  8.7525508178D-01 Coefficients=  1.0000000000D+00
 S 1 1.00
     Exponent=  3.1827457519D-01 Coefficients=  1.0000000000D+00
 S 1 1.00
     Exponent=  1.1573620916D-01 Coefficients=  1.0000000000D+00
 S 1 1.00
     Exponent=  4.2085894240D-02 Coefficients=  1.0000000000D+00
 P 5 1.00
     Exponent=  4.8799672315D+02 Coefficients=  2.1600000000D-03
     Exponent=  1.6266557438D+02 Coefficients=  9.7900000000D-03
     Exponent=  5.4221858128D+01 Coefficients=  5.4850000000D-02
     Exponent=  1.8073952709D+01 Coefficients=  2.1770000000D-01
     Exponent=  6.0246509031D+00 Coefficients=  4.8978000000D-01
 P 1 1.00
     Exponent=  2.0082169677D+00 Coefficients=  1.0000000000D+00
 P 1 1.00
     Exponent=  6.6940565590D-01 Coefficients=  1.0000000000D+00
 P 1 1.00
     Exponent=  2.2313521863D-01 Coefficients=  1.0000000000D+00
 P 1 1.00
     Exponent=  7.4378406211D-02 Coefficients=  1.0000000000D+00
 P 1 1.00
     Exponent=  2.4792802070D-02 Coefficients=  1.0000000000D+00
 D 1 1.00
     Exponent=  3.5395000000D-01 Coefficients=  1.0000000000D+00
 D 1 1.00
     Exponent=  8.9098000000D-02 Coefficients=  1.0000000000D+00
 ****
 Centers:       2      3      5      6      7
 S 7 1.00
     Exponent=  7.7142817164D+04 Coefficients=  1.0600000000D-03
     Exponent=  2.8051933514D+04 Coefficients=  6.4000000000D-04
     Exponent=  1.0200703096D+04 Coefficients=  3.9600000000D-03
     Exponent=  3.7093465804D+03 Coefficients=  9.8300000000D-03
     Exponent=  1.3488533020D+03 Coefficients=  3.2690000000D-02
     Exponent=  4.9049210981D+02 Coefficients=  9.9520000000D-02
     Exponent=  1.7836076720D+02 Coefficients=  2.6555000000D-01
 S 1 1.00
     Exponent=  6.4858460801D+01 Coefficients=  1.0000000000D+00
 S 1 1.00
     Exponent=  2.3584894837D+01 Coefficients=  1.0000000000D+00
 S 1 1.00
     Exponent=  8.5763253951D+00 Coefficients=  1.0000000000D+00
 S 1 1.00
     Exponent=  3.1186637801D+00 Coefficients=  1.0000000000D+00
 S 1 1.00
     Exponent=  1.1340595564D+00 Coefficients=  1.0000000000D+00
 S 1 1.00
     Exponent=  4.1238529323D-01 Coefficients=  1.0000000000D+00
 S 1 1.00
     Exponent=  1.4995828845D-01 Coefficients=  1.0000000000D+00
 S 1 1.00
     Exponent=  5.4530286708D-02 Coefficients=  1.0000000000D+00
 P 5 1.00
     Exponent=  6.9498536057D+02 Coefficients=  2.0000000000D-03
     Exponent=  2.3166178686D+02 Coefficients=  8.9500000000D-03
     Exponent=  7.7220595619D+01 Coefficients=  5.1130000000D-02
     Exponent=  2.5740198540D+01 Coefficients=  2.1011000000D-01
     Exponent=  8.5800661799D+00 Coefficients=  4.9738000000D-01
 P 1 1.00
     Exponent=  2.8600220600D+00 Coefficients=  1.0000000000D+00
 P 1 1.00
     Exponent=  9.5334068665D-01 Coefficients=  1.0000000000D+00
 P 1 1.00
     Exponent=  3.1778022888D-01 Coefficients=  1.0000000000D+00
 P 1 1.00
     Exponent=  1.0592674296D-01 Coefficients=  1.0000000000D+00
 P 1 1.00
     Exponent=  3.5308914320D-02 Coefficients=  1.0000000000D+00
 D 1 1.00
     Exponent=  5.5696000000D-01 Coefficients=  1.0000000000D+00
 D 1 1.00
     Exponent=  1.5619100000D-01 Coefficients=  1.0000000000D+00
 ****
 Centers:       4
 S 8 1.00
     Exponent=  7.5448214551D+05 Coefficients=  4.4300000000D-03
     Exponent=  3.3532539800D+05 Coefficients=  1.9800000000D-03
     Exponent=  1.4903351022D+05 Coefficients=  9.0500000000D-03
     Exponent=  6.6237115655D+04 Coefficients=  4.8700000000D-03
     Exponent=  2.9438718069D+04 Coefficients=  2.0770000000D-02
     Exponent=  1.3083874697D+04 Coefficients=  3.2900000000D-02
     Exponent=  5.8150554210D+03 Coefficients=  7.7010000000D-02
     Exponent=  2.5844690760D+03 Coefficients=  1.5160000000D-01
 S 1 1.00
     Exponent=  1.1486529227D+03 Coefficients=  1.0000000000D+00
 S 1 1.00
     Exponent=  5.1051241008D+02 Coefficients=  1.0000000000D+00
 S 1 1.00
     Exponent=  2.2689440448D+02 Coefficients=  1.0000000000D+00
 S 1 1.00
     Exponent=  1.0084195755D+02 Coefficients=  1.0000000000D+00
 S 1 1.00
     Exponent=  4.4818647798D+01 Coefficients=  1.0000000000D+00
 S 1 1.00
     Exponent=  1.9919399021D+01 Coefficients=  1.0000000000D+00
 S 1 1.00
     Exponent=  8.8530662317D+00 Coefficients=  1.0000000000D+00
 S 1 1.00
     Exponent=  3.9346961030D+00 Coefficients=  1.0000000000D+00
 S 1 1.00
     Exponent=  1.7487538235D+00 Coefficients=  1.0000000000D+00
 S 1 1.00
     Exponent=  7.7722392158D-01 Coefficients=  1.0000000000D+00
 S 1 1.00
     Exponent=  3.4543285403D-01 Coefficients=  1.0000000000D+00
 S 1 1.00
     Exponent=  1.5352571290D-01 Coefficients=  1.0000000000D+00
 S 1 1.00
     Exponent=  6.8233650180D-02 Coefficients=  1.0000000000D+00
 S 1 1.00
     Exponent=  1.3478251887D-02 Coefficients=  1.0000000000D+00
 P 5 1.00
     Exponent=  1.0090658304D+04 Coefficients=  2.7500000000D-03
     Exponent=  4.0362633217D+03 Coefficients=  4.1800000000D-03
     Exponent=  1.6145053287D+03 Coefficients=  2.0890000000D-02
     Exponent=  6.4580213147D+02 Coefficients=  7.1370000000D-02
     Exponent=  2.5832085259D+02 Coefficients=  2.2613000000D-01
 P 1 1.00
     Exponent=  1.0332834104D+02 Coefficients=  1.0000000000D+00
 P 1 1.00
     Exponent=  4.1331336414D+01 Coefficients=  1.0000000000D+00
 P 1 1.00
     Exponent=  1.6532534566D+01 Coefficients=  1.0000000000D+00
 P 1 1.00
     Exponent=  6.6130138263D+00 Coefficients=  1.0000000000D+00
 P 1 1.00
     Exponent=  2.6452055305D+00 Coefficients=  1.0000000000D+00
 P 1 1.00
     Exponent=  1.0580822122D+00 Coefficients=  1.0000000000D+00
 P 1 1.00
     Exponent=  4.2323288488D-01 Coefficients=  1.0000000000D+00
 P 1 1.00
     Exponent=  1.6929315395D-01 Coefficients=  1.0000000000D+00
 P 1 1.00
     Exponent=  6.7717261581D-02 Coefficients=  1.0000000000D+00
 P 1 1.00
     Exponent=  2.7086904632D-02 Coefficients=  1.0000000000D+00
 P 1 1.00
     Exponent=  1.0834761853D-02 Coefficients=  1.0000000000D+00
 D 4 1.00
     Exponent=  5.5430250651D+02 Coefficients=  4.3700000000D-03
     Exponent=  2.0156454782D+02 Coefficients=  2.5110000000D-02
     Exponent=  7.3296199207D+01 Coefficients=  1.3316000000D-01
     Exponent=  2.6653163348D+01 Coefficients=  3.8900000000D-01
 D 1 1.00
     Exponent=  9.6920593993D+00 Coefficients=  1.0000000000D+00
 D 1 1.00
     Exponent=  3.5243852361D+00 Coefficients=  1.0000000000D+00
 D 1 1.00
     Exponent=  1.2815946313D+00 Coefficients=  1.0000000000D+00
 D 1 1.00
     Exponent=  4.6603441139D-01 Coefficients=  1.0000000000D+00
 D 1 1.00
     Exponent=  1.6946705869D-01 Coefficients=  1.0000000000D+00
 F 1 1.00
     Exponent=  1.3140000000D+00 Coefficients=  1.0000000000D+00
 F 1 1.00
     Exponent=  1.9993000000D-01 Coefficients=  1.0000000000D+00
 ****
 Centers:       1
 S 9 1.00
     Exponent=  2.1644816090D+06 Coefficients=  1.2320000000D-02
     Exponent=  1.0822408045D+06 Coefficients=  1.2970000000D-02
     Exponent=  5.4112040224D+05 Coefficients=  2.6370000000D-02
     Exponent=  2.7056020112D+05 Coefficients=  9.0400000000D-03
     Exponent=  1.3528010056D+05 Coefficients=  3.4980000000D-02
     Exponent=  6.7640050280D+04 Coefficients=  1.2220000000D-02
     Exponent=  3.3820025140D+04 Coefficients=  6.0520000000D-02
     Exponent=  1.6910012570D+04 Coefficients=  6.4930000000D-02
     Exponent=  8.4550062850D+03 Coefficients=  1.3819000000D-01
 S 1 1.00
     Exponent=  4.2275031425D+03 Coefficients=  1.0000000000D+00
 S 1 1.00
     Exponent=  2.1137515713D+03 Coefficients=  1.0000000000D+00
 S 1 1.00
     Exponent=  1.0568757856D+03 Coefficients=  1.0000000000D+00
 S 1 1.00
     Exponent=  5.2843789281D+02 Coefficients=  1.0000000000D+00
 S 1 1.00
     Exponent=  2.6421894641D+02 Coefficients=  1.0000000000D+00
 S 1 1.00
     Exponent=  1.3210947320D+02 Coefficients=  1.0000000000D+00
 S 1 1.00
     Exponent=  6.6054736602D+01 Coefficients=  1.0000000000D+00
 S 1 1.00
     Exponent=  3.3027368301D+01 Coefficients=  1.0000000000D+00
 S 1 1.00
     Exponent=  1.6513684150D+01 Coefficients=  1.0000000000D+00
 S 1 1.00
     Exponent=  8.2568420752D+00 Coefficients=  1.0000000000D+00
 S 1 1.00
     Exponent=  4.1284210376D+00 Coefficients=  1.0000000000D+00
 S 1 1.00
     Exponent=  2.0642105188D+00 Coefficients=  1.0000000000D+00
 S 1 1.00
     Exponent=  1.0321052594D+00 Coefficients=  1.0000000000D+00
 S 1 1.00
     Exponent=  5.1605262970D-01 Coefficients=  1.0000000000D+00
 S 1 1.00
     Exponent=  2.5802631485D-01 Coefficients=  1.0000000000D+00
 S 1 1.00
     Exponent=  1.2901315743D-01 Coefficients=  1.0000000000D+00
 S 1 1.00
     Exponent=  6.4506578713D-02 Coefficients=  1.0000000000D+00
 P 7 1.00
     Exponent=  3.2357915258D+04 Coefficients=  5.0200000000D-03
     Exponent=  1.4381295670D+04 Coefficients=  2.0200000000D-03
     Exponent=  6.3916869645D+03 Coefficients=  1.8070000000D-02
     Exponent=  2.8407497620D+03 Coefficients=  3.6620000000D-02
     Exponent=  1.2625554498D+03 Coefficients=  1.1172000000D-01
     Exponent=  5.6113575545D+02 Coefficients=  2.5586000000D-01
     Exponent=  2.4939366909D+02 Coefficients=  4.2608000000D-01
 P 1 1.00
     Exponent=  1.1084163071D+02 Coefficients=  1.0000000000D+00
 P 1 1.00
     Exponent=  4.9262946981D+01 Coefficients=  1.0000000000D+00
 P 1 1.00
     Exponent=  2.1894643103D+01 Coefficients=  1.0000000000D+00
 P 1 1.00
     Exponent=  9.7309524900D+00 Coefficients=  1.0000000000D+00
 P 1 1.00
     Exponent=  4.3248677733D+00 Coefficients=  1.0000000000D+00
 P 1 1.00
     Exponent=  1.9221634548D+00 Coefficients=  1.0000000000D+00
 P 1 1.00
     Exponent=  8.5429486881D-01 Coefficients=  1.0000000000D+00
 P 1 1.00
     Exponent=  3.7968660836D-01 Coefficients=  1.0000000000D+00
 P 1 1.00
     Exponent=  1.6874960372D-01 Coefficients=  1.0000000000D+00
 P 1 1.00
     Exponent=  7.4999823874D-02 Coefficients=  1.0000000000D+00
 P 1 1.00
     Exponent=  3.3333255055D-02 Coefficients=  1.0000000000D+00
 D 5 1.00
     Exponent=  1.9119003508D+03 Coefficients=  4.3300000000D-03
     Exponent=  7.6476014031D+02 Coefficients=  1.7780000000D-02
     Exponent=  3.0590405613D+02 Coefficients=  8.9710000000D-02
     Exponent=  1.2236162245D+02 Coefficients=  3.1123000000D-01
     Exponent=  4.8944648980D+01 Coefficients=  5.3206000000D-01
 D 1 1.00
     Exponent=  1.9577859592D+01 Coefficients=  1.0000000000D+00
 D 1 1.00
     Exponent=  7.8311438368D+00 Coefficients=  1.0000000000D+00
 D 1 1.00
     Exponent=  3.1324575347D+00 Coefficients=  1.0000000000D+00
 D 1 1.00
     Exponent=  1.2529830139D+00 Coefficients=  1.0000000000D+00
 D 1 1.00
     Exponent=  5.0119320556D-01 Coefficients=  1.0000000000D+00
 D 1 1.00
     Exponent=  2.0047728222D-01 Coefficients=  1.0000000000D+00
 D 1 1.00
     Exponent=  8.0190912889D-02 Coefficients=  1.0000000000D+00
 D 1 1.00
     Exponent=  3.2076365156D-02 Coefficients=  1.0000000000D+00
 F 4 1.00
     Exponent=  8.2289680979D+01 Coefficients=  6.1870000000D-02
     Exponent=  2.9923520356D+01 Coefficients=  2.4823000000D-01
     Exponent=  1.0881280130D+01 Coefficients=  4.9956000000D-01
     Exponent=  3.9568291380D+00 Coefficients=  4.0380000000D-01
 F 1 1.00
     Exponent=  1.4388469593D+00 Coefficients=  1.0000000000D+00
 F 1 1.00
     Exponent=  5.2321707610D-01 Coefficients=  1.0000000000D+00
 G 1 1.00
     Exponent=  2.6700000000D+00 Coefficients=  1.0000000000D+00
 G 1 1.00
     Exponent=  9.0960000000D-01 Coefficients=  1.0000000000D+00
 ****
 Ernie: Thresh=  0.10000D-02 Tol=  0.10000D-05 Strict=F.
 There are  1211 symmetry adapted cartesian basis functions of A   symmetry.
 There are  1115 symmetry adapted basis functions of A   symmetry.
  1115 basis functions,  1790 primitive gaussians,  1211 cartesian basis functions
   188 alpha electrons      188 beta electrons
       nuclear repulsion energy      8286.5495585209 Hartrees.
 IExCor= 1009 DFT=T Ex=PBE Corr=PBE ExCW=0 ScaHFX=  0.000000
 ScaDFX=  1.000000  1.000000  1.000000  1.000000 ScalE2=  1.000000  1.000000
 IRadAn=      0 IRanWt=     -1 IRanGd=            0 ICorTp=0 IEmpDi=  4
 NAtoms=   44 NActive=   44 NUniq=   44 SFac= 1.00D+00 NAtFMM=   60 NAOKFM=F Big=F
 Integral buffers will be    131072 words long.
 Raffenetti 2 integral format.
 Two-electron integral symmetry is turned on.
 ------------------------------------------------------------------------------
 Polarizable Continuum Model (PCM)
 =================================
 Model                : PCM (using non-symmetric T matrix).
 Atomic radii         : UFF (Universal Force Field).
 Polarization charges : Total charges.
 Charge compensation  : None.
 Solution method      : On-the-fly selection.
 Cavity type          : Scaled VdW (van der Waals Surface) (Alpha=1.100).
 Cavity algorithm     : GePol (No added spheres)
                        Default sphere list used, NSphG=   44.
                        Lebedev-Laikov grids with approx.  5.0 points / Ang**2.
                        Smoothing algorithm: Karplus/York (Gamma=1.0000).
                        Polarization charges: spherical gaussians, with
                                              point-specific exponents (IZeta= 3).
                        Self-potential: point-specific (ISelfS= 7).
                        Self-field    : sphere-specific E.n sum rule (ISelfD= 2).
 Solvent              : Dichloromethane, Eps=   8.930000 Eps(inf)=   2.028346
 ------------------------------------------------------------------------------
 GePol: Number of generator spheres                  =      44
 GePol: Total number of spheres                      =      44
 GePol: Number of exposed spheres                    =      44 (100.00%)
 GePol: Number of points                             =    3919
 GePol: Average weight of points                     =       0.14
 GePol: Minimum weight of points                     =   0.32D-11
 GePol: Maximum weight of points                     =    0.21838
 GePol: Number of points with low weight             =     249
 GePol: Fraction of low-weight points (<1% of avg)   =       6.35%
 GePol: Cavity surface area                          =    554.335 Ang**2
 GePol: Cavity volume                                =    629.932 Ang**3
 Leave Link  301 at Tue Feb  4 08:34:47 2020, MaxMem=  4026531840 cpu:        11.0
 (Enter /scr/programs/g09/l302.exe)
 NPDir=0 NMtPBC=     1 NCelOv=     1 NCel=       1 NClECP=     1 NCelD=      1
         NCelK=      1 NCelE2=     1 NClLst=     1 CellRange=     0.0.
 One-electron integrals computed using PRISM.
 NBasis=  1115 RedAO= T EigKep=  1.93D-06  NBF=  1115
 NBsUse=  1115 1.00D-06 EigRej= -1.00D+00 NBFU=  1115
 Precomputing XC quadrature grid using
 IXCGrd= 4 IRadAn=           0 IRanWt=          -1 IRanGd=           0 AccXCQ= 0.00D+00.
 Defaulting to unpruned grid for atomic number  78.
 Defaulting to unpruned grid for atomic number  50.
 Generated NRdTot=       0 NPtTot=           0 NUsed=           0 NTot=          32
 NSgBfM=  1076  1085  1091  1095  1095 MxSgAt=    44 MxSgA2=    44.
 Leave Link  302 at Tue Feb  4 08:34:53 2020, MaxMem=  4026531840 cpu:       152.3
 (Enter /scr/programs/g09/l308.exe)
 Leave Link  308 at Tue Feb  4 08:34:56 2020, MaxMem=  4026531840 cpu:        56.8
 (Enter /scr/programs/g09/l303.exe)
 DipDrv:  MaxL=1.
 Leave Link  303 at Tue Feb  4 08:34:57 2020, MaxMem=  4026531840 cpu:        23.8
 (Enter /scr/programs/g09/l401.exe)
 ExpMin= 1.08D-02 ExpMax= 2.16D+06 ExpMxC= 2.16D+06 IAcc=4 IRadAn=    199590 AccDes= 0.00D+00
 Harris functional with IExCor= 1009 and IRadAn=  199590 diagonalized for initial guess.
 HarFok:  IExCor= 1009 AccDes= 0.00D+00 IRadAn=    199590 IDoV= 1 UseB2=F ITyADJ=14
 ICtDFT=  3500011 ScaDFX=  1.000000  1.000000  1.000000  1.000000
 FoFCou: FMM=F IPFlag=           0 FMFlag=      100000 FMFlg1=           0
         NFxFlg=           0 DoJE=T BraDBF=F KetDBF=T FulRan=T
         wScrn=  0.000000 ICntrl=     500 IOpCl=  0 I1Cent=   200000004 NGrid=           0
         NMat0=    1 NMatS0=      1 NMatT0=    0 NMatD0=    1 NMtDS0=    0 NMtDT0=    0
 Petite list used in FoFCou.
 Harris En= -26666.1599320106    
 JPrj=0 DoOrth=F DoCkMO=F.
 Leave Link  401 at Tue Feb  4 08:35:44 2020, MaxMem=  4026531840 cpu:      1120.7
 (Enter /scr/programs/g09/l502.exe)
 Closed shell SCF:
 Using DIIS extrapolation, IDIIS=  1040.
 Integral symmetry usage will be decided dynamically.
 IVT=     4691609 IEndB=     4691609 NGot=  4026531840 MDV=  4023558964
 LenX=  4023558964 LenY=  4022091232
 Requested convergence on RMS density matrix=1.00D-04 within 500 cycles.
 Requested convergence on MAX density matrix=1.00D-02.
 Requested convergence on             energy=1.00D-02.
 No special actions if energy rises.
 Fock matrices will be formed incrementally for  20 cycles.

 Cycle   1  Pass 1  IDiag  1:
 FoFJK:  IHMeth= 1 ICntrl=     500 DoSepK=F KAlg= 0 I1Cent=   0 FoldK=F
 IRaf= 660000000 NMat=   1 IRICut=       1 DoRegI=T DoRafI=F ISym2E= 0.
 FoFCou: FMM=F IPFlag=           0 FMFlag=      100000 FMFlg1=           0
         NFxFlg=           0 DoJE=T BraDBF=F KetDBF=F FulRan=T
         wScrn=  0.000000 ICntrl=     500 IOpCl=  0 I1Cent=           0 NGrid=           0
         NMat0=    1 NMatS0=      1 NMatT0=    0 NMatD0=    1 NMtDS0=    0 NMtDT0=    0
 Symmetry not used in FoFCou.
 Defaulting to unpruned grid for atomic number  78.
 Defaulting to unpruned grid for atomic number  78.
 Defaulting to unpruned grid for atomic number  78.
 Defaulting to unpruned grid for atomic number  78.
 Defaulting to unpruned grid for atomic number  78.
 Defaulting to unpruned grid for atomic number  78.
 Defaulting to unpruned grid for atomic number  78.
 Defaulting to unpruned grid for atomic number  78.
 Defaulting to unpruned grid for atomic number  78.
 Defaulting to unpruned grid for atomic number  78.
 Defaulting to unpruned grid for atomic number  78.
 Defaulting to unpruned grid for atomic number  78.
 Defaulting to unpruned grid for atomic number  78.
 Defaulting to unpruned grid for atomic number  78.
 Defaulting to unpruned grid for atomic number  78.
 Defaulting to unpruned grid for atomic number  78.
 Defaulting to unpruned grid for atomic number  78.
 Defaulting to unpruned grid for atomic number  78.
 Defaulting to unpruned grid for atomic number  78.
 Defaulting to unpruned grid for atomic number  78.
 Defaulting to unpruned grid for atomic number  78.
 Defaulting to unpruned grid for atomic number  78.
 Defaulting to unpruned grid for atomic number  78.
 Defaulting to unpruned grid for atomic number  78.
 Inv3:  Mode=1 IEnd=    46075683.
 Iteration    1 A*A^-1 deviation from unit magnitude is 9.77D-15 for   3430.
 Iteration    1 A*A^-1 deviation from orthogonality  is 9.15D-15 for   1919   1279.
 Iteration    1 A^-1*A deviation from unit magnitude is 1.69D-14 for   2128.
 Iteration    1 A^-1*A deviation from orthogonality  is 3.84D-11 for   2573   2562.
 E= -26647.6108050586    
 DIIS: error= 2.53D-01 at cycle   1 NSaved=   1.
 NSaved= 1 IEnMin= 1 EnMin= -26647.6108050586     IErMin= 1 ErrMin= 2.53D-01
 ErrMax= 2.53D-01  0.00D+00 EMaxC= 1.00D-01 BMatC= 3.33D+02 BMatP= 3.33D+02
 IDIUse=3 WtCom= 0.00D+00 WtEn= 1.00D+00
 Coeff-Com:  0.100D+01
 Coeff-En:   0.100D+01
 Coeff:      0.100D+01
 Gap=     0.770 Goal=   None    Shift=    0.000
 GapD=    0.770 DampG=2.000 DampE=0.125 DampFc=0.2500 IDamp=-1.
 Damping current iteration by 2.50D-01
 RMSDP=6.98D-03 MaxDP=7.75D-01              OVMax= 7.59D-01

 Cycle   2  Pass 1  IDiag  1:
 RMSU=  1.72D-03    CP:  1.02D+00
 E= -26649.1557958961     Delta-E=       -1.544990837530 Rises=F Damp=T
 DIIS: error= 1.83D-01 at cycle   2 NSaved=   2.
 NSaved= 2 IEnMin= 2 EnMin= -26649.1557958961     IErMin= 2 ErrMin= 1.83D-01
 ErrMax= 1.83D-01  0.00D+00 EMaxC= 1.00D-01 BMatC= 1.61D+02 BMatP= 3.33D+02
 IDIUse=3 WtCom= 0.00D+00 WtEn= 1.00D+00
 Coeff-Com: -0.204D+01 0.304D+01
 Coeff-En:   0.000D+00 0.100D+01
 Coeff:      0.000D+00 0.100D+01
 Gap=    -0.054 Goal=   None    Shift=    0.000
 RMSDP=2.10D-03 MaxDP=1.58D-01 DE=-1.54D+00 OVMax= 9.64D-01

 Cycle   3  Pass 1  IDiag  1:
 RMSU=  2.08D-03    CP:  1.00D+00  1.09D+00
 E= -26651.1557106506     Delta-E=       -1.999914754524 Rises=F Damp=F
 DIIS: error= 6.30D-02 at cycle   3 NSaved=   3.
 NSaved= 3 IEnMin= 3 EnMin= -26651.1557106506     IErMin= 3 ErrMin= 6.30D-02
 ErrMax= 6.30D-02  0.00D+00 EMaxC= 1.00D-01 BMatC= 9.28D+00 BMatP= 1.61D+02
 IDIUse=3 WtCom= 3.70D-01 WtEn= 6.30D-01
 Coeff-Com:  0.117D+01-0.146D+01 0.130D+01
 Coeff-En:   0.171D+00 0.000D+00 0.829D+00
 Coeff:      0.539D+00-0.542D+00 0.100D+01
 Gap=     0.089 Goal=   None    Shift=    0.000
 RMSDP=5.81D-03 MaxDP=8.23D-01 DE=-2.00D+00 OVMax= 9.20D-01

 Cycle   4  Pass 1  IDiag  1:
 RMSU=  4.78D-03    CP:  1.10D+00  1.85D+00 -3.10D-01
 E= -26645.7915983580     Delta-E=        5.364112292620 Rises=F Damp=F
 DIIS: error= 5.53D-02 at cycle   4 NSaved=   4.
 NSaved= 4 IEnMin= 3 EnMin= -26651.1557106506     IErMin= 4 ErrMin= 5.53D-02
 ErrMax= 5.53D-02  0.00D+00 EMaxC= 1.00D-01 BMatC= 6.86D+00 BMatP= 9.28D+00
 IDIUse=3 WtCom= 4.47D-01 WtEn= 5.53D-01
 EnCoef did     7 forward-backward iterations
 Coeff-Com:  0.560D+00-0.691D+00 0.793D+00 0.339D+00
 Coeff-En:   0.680D-01 0.000D+00 0.786D+00 0.146D+00
 Coeff:      0.288D+00-0.309D+00 0.789D+00 0.232D+00
 Gap=    -0.049 Goal=   None    Shift=    0.000
 RMSDP=5.27D-03 MaxDP=7.65D-01 DE= 5.36D+00 OVMax= 9.56D-01

 Cycle   5  Pass 1  IDiag  1:
 RMSU=  9.57D-04    CP:  1.01D+00  7.01D-01  5.13D-01  1.01D-01
 E= -26652.0557326437     Delta-E=       -6.264134285651 Rises=F Damp=F
 DIIS: error= 2.80D-02 at cycle   5 NSaved=   5.
 NSaved= 5 IEnMin= 5 EnMin= -26652.0557326437     IErMin= 5 ErrMin= 2.80D-02
 ErrMax= 2.80D-02  0.00D+00 EMaxC= 1.00D-01 BMatC= 1.05D+00 BMatP= 6.86D+00
 IDIUse=3 WtCom= 7.20D-01 WtEn= 2.80D-01
 Coeff-Com: -0.145D+00 0.211D+00 0.179D+00 0.486D-01 0.707D+00
 Coeff-En:   0.000D+00 0.000D+00 0.184D+00 0.000D+00 0.816D+00
 Coeff:     -0.104D+00 0.152D+00 0.180D+00 0.350D-01 0.738D+00
 Gap=     0.189 Goal=   None    Shift=    0.000
 RMSDP=1.28D-03 MaxDP=1.72D-01 DE=-6.26D+00 OVMax= 1.39D-01

 Cycle   6  Pass 1  IDiag  1:
 RMSU=  8.58D-04    CP:  1.01D+00  9.07D-01  6.02D-01  1.05D-01  1.05D-01
 E= -26652.1926729530     Delta-E=       -0.136940309327 Rises=F Damp=F
 DIIS: error= 5.93D-03 at cycle   6 NSaved=   6.
 NSaved= 6 IEnMin= 6 EnMin= -26652.1926729530     IErMin= 6 ErrMin= 5.93D-03
 ErrMax= 5.93D-03  0.00D+00 EMaxC= 1.00D-01 BMatC= 1.69D-01 BMatP= 1.05D+00
 IDIUse=3 WtCom= 9.41D-01 WtEn= 5.93D-02
 Coeff-Com: -0.102D+00 0.141D+00 0.515D-01 0.609D-02 0.461D+00 0.443D+00
 Coeff-En:   0.000D+00 0.000D+00 0.000D+00 0.000D+00 0.341D+00 0.659D+00
 Coeff:     -0.958D-01 0.133D+00 0.485D-01 0.573D-02 0.453D+00 0.455D+00
 Gap=     0.102 Goal=   None    Shift=    0.000
 RMSDP=6.82D-04 MaxDP=8.21D-02 DE=-1.37D-01 OVMax= 7.97D-02

 Cycle   7  Pass 1  IDiag  1:
 RMSU=  3.05D-04    CP:  1.01D+00  8.81D-01  5.90D-01  1.17D-01  5.28D-01
                    CP:  4.78D-01
 E= -26652.2988772864     Delta-E=       -0.106204333366 Rises=F Damp=F
 DIIS: error= 1.73D-03 at cycle   7 NSaved=   7.
 NSaved= 7 IEnMin= 7 EnMin= -26652.2988772864     IErMin= 7 ErrMin= 1.73D-03
 ErrMax= 1.73D-03  0.00D+00 EMaxC= 1.00D-01 BMatC= 2.08D-02 BMatP= 1.69D-01
 IDIUse=3 WtCom= 9.83D-01 WtEn= 1.73D-02
 Coeff-Com: -0.770D-01 0.105D+00 0.481D-02-0.228D-02 0.249D+00 0.311D+00
 Coeff-Com:  0.410D+00
 Coeff-En:   0.000D+00 0.000D+00 0.000D+00 0.000D+00 0.000D+00 0.130D+00
 Coeff-En:   0.870D+00
 Coeff:     -0.757D-01 0.103D+00 0.473D-02-0.224D-02 0.245D+00 0.308D+00
 Coeff:      0.418D+00
 Gap=     0.098 Goal=   None    Shift=    0.000
 RMSDP=2.27D-04 MaxDP=2.06D-02 DE=-1.06D-01 OVMax= 3.48D-02

 Cycle   8  Pass 1  IDiag  1:
 RMSU=  1.27D-04    CP:  1.01D+00  8.90D-01  5.92D-01  1.14D-01  5.08D-01
                    CP:  5.42D-01  4.19D-01
 E= -26652.3168443221     Delta-E=       -0.017967035703 Rises=F Damp=F
 DIIS: error= 8.26D-04 at cycle   8 NSaved=   8.
 NSaved= 8 IEnMin= 8 EnMin= -26652.3168443221     IErMin= 8 ErrMin= 8.26D-04
 ErrMax= 8.26D-04  0.00D+00 EMaxC= 1.00D-01 BMatC= 1.87D-03 BMatP= 2.08D-02
 IDIUse=3 WtCom= 9.92D-01 WtEn= 8.26D-03
 Coeff-Com: -0.337D-01 0.452D-01-0.586D-02 0.748D-03 0.841D-01 0.123D+00
 Coeff-Com:  0.259D+00 0.528D+00
 Coeff-En:   0.000D+00 0.000D+00 0.000D+00 0.000D+00 0.000D+00 0.000D+00
 Coeff-En:   0.534D-01 0.947D+00
 Coeff:     -0.334D-01 0.448D-01-0.581D-02 0.742D-03 0.834D-01 0.122D+00
 Coeff:      0.257D+00 0.531D+00
 Gap=     0.088 Goal=   None    Shift=    0.000
 RMSDP=8.90D-05 MaxDP=7.97D-03 DE=-1.80D-02 OVMax= 1.30D-02

 Cycle   9  Pass 1  IDiag  1:
 RMSU=  7.18D-05    CP:  1.01D+00  8.98D-01  5.86D-01  1.12D-01  5.14D-01
                    CP:  5.53D-01  5.09D-01  7.03D-01
 E= -26652.3180016384     Delta-E=       -0.001157316285 Rises=F Damp=F
 DIIS: error= 3.22D-04 at cycle   9 NSaved=   9.
 NSaved= 9 IEnMin= 9 EnMin= -26652.3180016384     IErMin= 9 ErrMin= 3.22D-04
 ErrMax= 3.22D-04  0.00D+00 EMaxC= 1.00D-01 BMatC= 6.64D-04 BMatP= 1.87D-03
 IDIUse=3 WtCom= 9.97D-01 WtEn= 3.22D-03
 Coeff-Com: -0.948D-02 0.125D-01-0.385D-02 0.305D-02 0.197D-01 0.383D-01
 Coeff-Com:  0.119D+00 0.374D+00 0.447D+00
 Coeff-En:   0.000D+00 0.000D+00 0.000D+00 0.000D+00 0.000D+00 0.000D+00
 Coeff-En:   0.000D+00 0.226D+00 0.774D+00
 Coeff:     -0.945D-02 0.125D-01-0.384D-02 0.304D-02 0.196D-01 0.381D-01
 Coeff:      0.118D+00 0.374D+00 0.448D+00
 Gap=     0.089 Goal=   None    Shift=    0.000
 RMSDP=4.00D-05 MaxDP=6.44D-03 DE=-1.16D-03 OVMax= 5.14D-03

 Error on total polarization charges =  0.03112
 SCF Done:  E(RPBE-PBE) =  -26652.3180016     A.U. after    9 cycles
            NFock=  9  Conv=0.40D-04     -V/T= 2.0154
 KE= 2.624880754664D+04 PE=-7.969144958369D+04 EE= 1.850377447689D+04
 Leave Link  502 at Tue Feb  4 08:50:08 2020, MaxMem=  4026531840 cpu:     20607.0
 (Enter /scr/programs/g09/l801.exe)
 Range of M.O.s used for correlation:     1  1115
 NBasis=  1115 NAE=   188 NBE=   188 NFC=     0 NFV=     0
 NROrb=   1115 NOA=   188 NOB=   188 NVA=   927 NVB=   927

 **** Warning!!: The largest alpha MO coefficient is  0.61590542D+02


 **** Warning!!: The smallest alpha delta epsilon is  0.88487906D-01

 Leave Link  801 at Tue Feb  4 08:50:09 2020, MaxMem=  4026531840 cpu:         1.6
 (Enter /scr/programs/g09/l1002.exe)
 Minotr:  Closed shell wavefunction.
 NEqPCM:  Using equilibrium solvation (IEInf=0, Eps=   8.9300, EpsInf=   2.0283)
          Direct CPHF calculation.
          Differentiating once with respect to magnetic field using GIAOs.
          Electric field/nuclear overlap derivatives assumed to be zero.
          Requested convergence is 1.0D-08 RMS, and 1.0D-07 maximum.
          Secondary convergence is 1.0D-12 RMS, and 1.0D-12 maximum.
          NewPWx=T KeepS1=F KeepF1=F KeepIn=T MapXYZ=F SortEE=F KeepMc=T.
          MDV=    4026530369 using IRadAn=       2.
 Defaulting to unpruned grid for atomic number  78.
 Defaulting to unpruned grid for atomic number  50.
 Generate precomputed XC quadrature information.
          Solving linear equations simultaneously, MaxMat=       0.
 FoFJK:  IHMeth= 1 ICntrl=    6127 DoSepK=F KAlg= 0 I1Cent=   0 FoldK=F
 IRaf=         1 NMat=   1 IRICut=       1 DoRegI=T DoRafI=F ISym2E= 0.
 Defaulting to unpruned grid for atomic number  78.
 Defaulting to unpruned grid for atomic number  78.
 Defaulting to unpruned grid for atomic number  78.
 Defaulting to unpruned grid for atomic number  78.
 Defaulting to unpruned grid for atomic number  78.
 Defaulting to unpruned grid for atomic number  78.
 Defaulting to unpruned grid for atomic number  78.
 Defaulting to unpruned grid for atomic number  78.
 Defaulting to unpruned grid for atomic number  78.
 Defaulting to unpruned grid for atomic number  78.
 Defaulting to unpruned grid for atomic number  78.
 Defaulting to unpruned grid for atomic number  78.
 Defaulting to unpruned grid for atomic number  78.
 Defaulting to unpruned grid for atomic number  78.
 Defaulting to unpruned grid for atomic number  78.
 Defaulting to unpruned grid for atomic number  78.
 Defaulting to unpruned grid for atomic number  78.
 Defaulting to unpruned grid for atomic number  78.
 Defaulting to unpruned grid for atomic number  78.
 Defaulting to unpruned grid for atomic number  78.
 Defaulting to unpruned grid for atomic number  78.
 Defaulting to unpruned grid for atomic number  78.
 Defaulting to unpruned grid for atomic number  78.
 Defaulting to unpruned grid for atomic number  78.
          There are     3 degrees of freedom in the 1st order CPHF.  IDoFFX=0 NUNeed=     3.
      3 vectors produced by pass  0 Test12= 5.81D-12 3.33D-08 XBig12= 3.71D+02 2.53D+00.
 AX will form     3 AO Fock derivatives at one time.
 InvSVY:  IOpt=1 It=  1 EMax= 0.00D+00
 Solved reduced A of dimension     3 with     3 vectors.
 Calculating GIAO nuclear magnetic shielding tensors.
 SCF GIAO Magnetic shielding tensor (ppm):
      1  Pt   Isotropic =  2711.2317   Anisotropy =  2553.7149
   XX=  3851.8216   YX=   716.6550   ZX=  -323.7286
   XY=   647.7089   YY=  3584.7921   ZY=   470.2916
   XZ=  -357.4531   YZ=   454.7742   ZZ=   697.0813
   Eigenvalues:   563.1054  3156.8814  4413.7083
      2  Cl   Isotropic =   912.0075   Anisotropy =   380.3916
   XX=   681.2637   YX=  -135.8996   ZX=    38.7789
   XY=  -123.8407   YY=   892.3821   ZY=    13.7572
   XZ=     7.7573   YZ=   -46.1073   ZZ=  1162.3767
   Eigenvalues:   619.0989   951.3217  1165.6019
      3  Cl   Isotropic =   977.8300   Anisotropy =   479.1871
   XX=   760.1812   YX=   112.2144   ZX=    65.4286
   XY=   148.6903   YY=   895.9902   ZY=   -86.3490
   XZ=    83.5530   YZ=   -69.2084   ZZ=  1277.3186
   Eigenvalues:   663.3197   972.8823  1297.2881
      4  Sn   Isotropic =  2172.0271   Anisotropy =   765.4415
   XX=  2355.8333   YX=  -364.1637   ZX=   -92.4323
   XY=  -350.6064   YY=  2253.6973   ZY=    77.2358
   XZ=   -93.5231   YZ=    54.0974   ZZ=  1906.5507
   Eigenvalues:  1887.7761  1945.9838  2682.3215
      5  Cl   Isotropic =   764.6186   Anisotropy =   344.4790
   XX=   787.5477   YX=   -46.7992   ZX=   172.1105
   XY=   -40.0250   YY=   685.5108   ZY=   -78.8000
   XZ=   159.0773   YZ=   -72.8600   ZZ=   820.7972
   Eigenvalues:   628.0943   671.4902   994.2712
      6  Cl   Isotropic =   770.7180   Anisotropy =   326.2015
   XX=   795.4337   YX=    35.2776   ZX=  -170.0673
   XY=    33.7118   YY=   660.9465   ZY=    -4.7477
   XZ=  -143.0624   YZ=   -21.2514   ZZ=   855.7739
   Eigenvalues:   643.2796   680.6888   988.1856
      7  Cl   Isotropic =   752.3780   Anisotropy =   327.3851
   XX=   642.3463   YX=    61.6499   ZX=    23.5014
   XY=    81.2422   YY=   931.1294   ZY=    77.5514
   XZ=    35.9975   YZ=    74.5495   ZZ=   683.6585
   Eigenvalues:   622.3466   664.1528   970.6348
      8  P    Isotropic =   168.0828   Anisotropy =   275.5503
   XX=   244.6794   YX=   155.5197   ZX=   -14.3234
   XY=    87.3925   YY=   213.7585   ZY=     0.4307
   XZ=   -11.3714   YZ=     9.8276   ZZ=    45.8107
   Eigenvalues:    43.2856   109.1799   351.7830
      9  O    Isotropic =   121.9960   Anisotropy =    99.4139
   XX=   168.4051   YX=    43.5553   ZX=    -5.4959
   XY=    44.2135   YY=    91.2733   ZY=     0.7136
   XZ=     6.2958   YZ=    -6.9605   ZZ=   106.3096
   Eigenvalues:    71.1589   106.5571   188.2719
     10  O    Isotropic =   107.9707   Anisotropy =    95.2204
   XX=    79.7560   YX=   -22.7562   ZX=    17.7120
   XY=     0.4596   YY=   122.3121   ZY=   -31.1761
   XZ=   -31.3357   YZ=   -67.3557   ZZ=   121.8441
   Eigenvalues:    63.0924    89.3687   171.4510
     11  O    Isotropic =   105.9368   Anisotropy =   108.1503
   XX=   110.1944   YX=   -18.6617   ZX=    -3.1729
   XY=   -15.5050   YY=   128.3559   ZY=    77.5302
   XZ=     1.8411   YZ=    56.0319   ZZ=    79.2599
   Eigenvalues:    31.5543   108.2190   178.0369
     12  C    Isotropic =    31.1377   Anisotropy =   136.4604
   XX=    51.5476   YX=    78.4238   ZX=     9.1632
   XY=    99.7658   YY=     3.4760   ZY=    14.2468
   XZ=    10.7313   YZ=     5.6088   ZZ=    38.3896
   Eigenvalues:   -64.8011    36.1030   122.1114
     13  C    Isotropic =    67.5956   Anisotropy =   159.8326
   XX=   121.7831   YX=    69.3227   ZX=    -3.1656
   XY=    64.8504   YY=    78.2862   ZY=    38.8910
   XZ=     7.8404   YZ=    37.5798   ZZ=     2.7175
   Eigenvalues:   -18.5818    47.2179   174.1507
     14  C    Isotropic =    65.2211   Anisotropy =   163.5696
   XX=   116.2495   YX=    66.8515   ZX=    37.3860
   XY=    73.8666   YY=    81.6042   ZY=   -16.5366
   XZ=    34.8674   YZ=    -3.8613   ZZ=    -2.1904
   Eigenvalues:   -23.2068    44.6025   174.2675
     15  C    Isotropic =    63.1859   Anisotropy =   189.4343
   XX=   122.3573   YX=    79.1370   ZX=    36.9935
   XY=    82.1320   YY=    84.2133   ZY=    -8.7175
   XZ=    41.7620   YZ=    -7.4506   ZZ=   -17.0128
   Eigenvalues:   -36.6155    36.6979   189.4755
     16  H    Isotropic =    24.0218   Anisotropy =     9.4038
   XX=    24.2088   YX=    -3.1667   ZX=    -4.6299
   XY=    -3.3094   YY=    23.8541   ZY=     2.3359
   XZ=    -3.3240   YZ=     1.7680   ZZ=    24.0025
   Eigenvalues:    19.8547    21.9197    30.2910
     17  C    Isotropic =    65.4998   Anisotropy =   196.7663
   XX=   134.1951   YX=    76.8906   ZX=     8.3795
   XY=    83.0211   YY=    80.5022   ZY=    44.7064
   XZ=     6.4713   YZ=    45.2070   ZZ=   -18.1978
   Eigenvalues:   -39.3092    39.1313   196.6773
     18  H    Isotropic =    24.3136   Anisotropy =     8.7169
   XX=    22.0929   YX=    -6.4808   ZX=     2.0759
   XY=    -3.3585   YY=    26.6454   ZY=    -0.0475
   XZ=     2.6965   YZ=    -0.1471   ZZ=    24.2026
   Eigenvalues:    18.2824    24.5336    30.1249
     19  C    Isotropic =    73.4882   Anisotropy =   194.5788
   XX=   122.1258   YX=   103.3166   ZX=    17.4971
   XY=   110.2068   YY=    52.7454   ZY=    16.3250
   XZ=    20.2080   YZ=    11.8728   ZZ=    45.5934
   Eigenvalues:   -24.8222    42.0794   203.2074
     20  H    Isotropic =    25.9198   Anisotropy =     2.2221
   XX=    26.7993   YX=    -1.2967   ZX=    -0.3054
   XY=     0.3367   YY=    27.0091   ZY=    -0.1980
   XZ=     1.1897   YZ=     0.5625   ZZ=    23.9510
   Eigenvalues:    23.8633    26.4949    27.4012
     21  H    Isotropic =    25.5695   Anisotropy =     5.4302
   XX=    26.2096   YX=    -3.1034   ZX=    -0.0088
   XY=    -1.4337   YY=    27.2123   ZY=     1.4867
   XZ=    -0.9172   YZ=     0.2248   ZZ=    23.2865
   Eigenvalues:    23.1081    24.4108    29.1896
     22  H    Isotropic =    26.7452   Anisotropy =     3.3053
   XX=    27.2218   YX=     0.5737   ZX=    -0.1649
   XY=     2.9500   YY=    26.9242   ZY=     1.0327
   XZ=     0.2857   YZ=     0.4552   ZZ=    26.0896
   Eigenvalues:    25.0402    26.2467    28.9487
     23  C    Isotropic =    23.6464   Anisotropy =   116.9092
   XX=   -12.7882   YX=   -35.7281   ZX=   -68.9629
   XY=   -27.1442   YY=    74.4527   ZY=    15.4073
   XZ=   -63.7718   YZ=    11.1950   ZZ=     9.2748
   Eigenvalues:   -70.7445    40.0979   101.5859
     24  C    Isotropic =    53.6045   Anisotropy =   154.3981
   XX=    24.1995   YX=   -81.9147   ZX=   -12.9664
   XY=   -78.6340   YY=    69.7739   ZY=    50.2834
   XZ=   -20.6639   YZ=    44.7865   ZZ=    66.8400
   Eigenvalues:   -38.9795    43.2563   156.5365
     25  C    Isotropic =    53.3375   Anisotropy =   152.8262
   XX=    65.0402   YX=   -35.5898   ZX=   -34.9818
   XY=   -43.7479   YY=    81.7518   ZY=    73.2163
   XZ=   -25.0071   YZ=    72.3968   ZZ=    13.2204
   Eigenvalues:   -33.1806    37.9714   155.2216
     26  C    Isotropic =    48.3863   Anisotropy =   171.4351
   XX=    66.5323   YX=   -44.0441   ZX=   -32.2575
   XY=   -45.3837   YY=    70.6803   ZY=    92.9311
   XZ=   -32.1576   YZ=    79.5832   ZZ=     7.9462
   Eigenvalues:   -52.4753    34.9577   162.6764
     27  H    Isotropic =    23.7696   Anisotropy =    10.0557
   XX=    22.6188   YX=    -1.3691   ZX=     3.8556
   XY=    -0.8783   YY=    20.1107   ZY=    -0.9790
   XZ=     3.1862   YZ=    -1.6038   ZZ=    28.5792
   Eigenvalues:    19.6804    21.1550    30.4734
     28  C    Isotropic =    46.3040   Anisotropy =   170.9462
   XX=    15.8299   YX=   -89.8048   ZX=   -13.7311
   XY=   -87.6409   YY=    65.6911   ZY=    54.1432
   XZ=   -10.2915   YZ=    58.8984   ZZ=    57.3908
   Eigenvalues:   -57.4059    36.0496   160.2681
     29  H    Isotropic =    25.2643   Anisotropy =     8.6590
   XX=    26.1365   YX=     3.0524   ZX=     6.1487
   XY=     2.5407   YY=    23.9147   ZY=    -1.1403
   XZ=     3.5844   YZ=    -1.2171   ZZ=    25.7416
   Eigenvalues:    19.3274    25.4285    31.0369
     30  C    Isotropic =    50.3877   Anisotropy =   160.9767
   XX=    11.8205   YX=   -50.3769   ZX=   -73.0174
   XY=   -43.3577   YY=   101.3744   ZY=    41.6859
   XZ=   -62.1348   YZ=    35.7271   ZZ=    37.9682
   Eigenvalues:   -45.0335    38.4911   157.7056
     31  H    Isotropic =    24.2571   Anisotropy =     4.9266
   XX=    25.3279   YX=     1.2342   ZX=     2.3470
   XY=     1.0744   YY=    22.6515   ZY=     0.7620
   XZ=     1.9816   YZ=     0.2771   ZZ=    24.7919
   Eigenvalues:    22.1661    23.0637    27.5415
     32  H    Isotropic =    24.5332   Anisotropy =     6.7516
   XX=    24.3643   YX=     1.0135   ZX=     3.7357
   XY=     0.4641   YY=    22.8758   ZY=    -0.6932
   XZ=     3.3293   YZ=    -0.6844   ZZ=    26.3593
   Eigenvalues:    21.1168    23.4484    29.0343
     33  H    Isotropic =    24.9216   Anisotropy =     2.2060
   XX=    24.1954   YX=     1.1983   ZX=     0.3613
   XY=     0.8920   YY=    25.0145   ZY=    -0.7204
   XZ=     0.0050   YZ=    -1.1555   ZZ=    25.5549
   Eigenvalues:    23.2632    25.1093    26.3922
     34  C    Isotropic =    20.5902   Anisotropy =   100.1384
   XX=    25.9315   YX=   -55.4502   ZX=    37.2000
   XY=   -55.1703   YY=   -23.8854   ZY=    13.2326
   XZ=    36.6026   YZ=    16.6271   ZZ=    59.7245
   Eigenvalues:   -68.1998    42.6212    87.3491
     35  C    Isotropic =    51.7788   Anisotropy =   153.9028
   XX=    87.6666   YX=    -3.1149   ZX=    56.0335
   XY=    -4.0551   YY=   -18.4255   ZY=   -53.1389
   XZ=    63.2064   YZ=   -42.2393   ZZ=    86.0954
   Eigenvalues:   -40.0608    41.0166   154.3807
     36  C    Isotropic =    49.5145   Anisotropy =   157.7399
   XX=    43.5303   YX=    -4.6529   ZX=    95.1296
   XY=   -14.6256   YY=    39.2694   ZY=   -22.9874
   XZ=    93.3898   YZ=   -24.8502   ZZ=    65.7438
   Eigenvalues:   -41.2498    35.1189   154.6744
     37  C    Isotropic =    49.0854   Anisotropy =   187.8455
   XX=    42.8809   YX=   -11.1436   ZX=   113.2517
   XY=   -10.5116   YY=    39.2780   ZY=   -32.7912
   XZ=   113.2876   YZ=   -27.4530   ZZ=    65.0973
   Eigenvalues:   -61.3642    34.3047   174.3158
     38  H    Isotropic =    23.5379   Anisotropy =     9.8019
   XX=    22.8834   YX=     1.6647   ZX=    -4.5852
   XY=     1.7005   YY=    22.4948   ZY=    -2.7644
   XZ=    -4.5742   YZ=    -2.5190   ZZ=    25.2354
   Eigenvalues:    19.2926    21.2485    30.0725
     39  C    Isotropic =    47.4126   Anisotropy =   184.7779
   XX=    85.5797   YX=     3.1639   ZX=    73.7899
   XY=    -3.5579   YY=   -34.5473   ZY=   -56.0308
   XZ=    73.2714   YZ=   -57.4827   ZZ=    91.2054
   Eigenvalues:   -62.0668    33.7068   170.5979
     40  H    Isotropic =    23.0181   Anisotropy =     9.6536
   XX=    23.6918   YX=     2.9911   ZX=    -1.8102
   XY=     2.6510   YY=    27.5252   ZY=    -1.4247
   XZ=    -2.5996   YZ=    -1.2731   ZZ=    17.8373
   Eigenvalues:    17.0836    22.5168    29.4538
     41  C    Isotropic =    55.1629   Anisotropy =   189.8318
   XX=    70.9862   YX=   -57.4546   ZX=    80.4889
   XY=   -60.0652   YY=   -13.9200   ZY=    -4.0391
   XZ=    82.9309   YZ=    -1.7185   ZZ=   108.4224
   Eigenvalues:   -53.4484    37.2196   181.7174
     42  H    Isotropic =    23.5167   Anisotropy =     5.9127
   XX=    21.9107   YX=     2.2232   ZX=    -2.2644
   XY=     1.8105   YY=    26.4984   ZY=    -0.2573
   XZ=    -1.7792   YZ=    -0.3119   ZZ=    22.1412
   Eigenvalues:    19.7392    23.3525    27.4585
     43  H    Isotropic =    23.5264   Anisotropy =     6.7515
   XX=    23.8904   YX=     2.4024   ZX=    -2.4614
   XY=     2.0827   YY=    24.9748   ZY=    -1.7200
   XZ=    -2.8072   YZ=    -1.2608   ZZ=    21.7142
   Eigenvalues:    19.9521    22.5998    28.0274
     44  H    Isotropic =    23.7669   Anisotropy =     3.6111
   XX=    23.0655   YX=     0.0572   ZX=    -2.5708
   XY=    -0.2462   YY=    24.8375   ZY=     0.7880
   XZ=    -2.5672   YZ=     0.9232   ZZ=    23.3979
   Eigenvalues:    20.5931    24.5334    26.1744
 End of Minotr F.D. properties file   721 does not exist.
 End of Minotr F.D. properties file   722 does not exist.
 End of Minotr F.D. properties file   788 does not exist.
 Leave Link 1002 at Tue Feb  4 09:13:29 2020, MaxMem=  4026531840 cpu:     31993.6
 (Enter /scr/programs/g09/l601.exe)
 Copying SCF densities to generalized density rwf, IOpCl= 0 IROHF=0.

 **********************************************************************

            Population analysis using the SCF density.

 **********************************************************************

 Orbital symmetries:
       Occupied  (A) (A) (A) (A) (A) (A) (A) (A) (A) (A) (A) (A)
                 (A) (A) (A) (A) (A) (A) (A) (A) (A) (A) (A) (A)
                 (A) (A) (A) (A) (A) (A) (A) (A) (A) (A) (A) (A)
                 (A) (A) (A) (A) (A) (A) (A) (A) (A) (A) (A) (A)
                 (A) (A) (A) (A) (A) (A) (A) (A) (A) (A) (A) (A)
                 (A) (A) (A) (A) (A) (A) (A) (A) (A) (A) (A) (A)
                 (A) (A) (A) (A) (A) (A) (A) (A) (A) (A) (A) (A)
                 (A) (A) (A) (A) (A) (A) (A) (A) (A) (A) (A) (A)
                 (A) (A) (A) (A) (A) (A) (A) (A) (A) (A) (A) (A)
                 (A) (A) (A) (A) (A) (A) (A) (A) (A) (A) (A) (A)
                 (A) (A) (A) (A) (A) (A) (A) (A) (A) (A) (A) (A)
                 (A) (A) (A) (A) (A) (A) (A) (A) (A) (A) (A) (A)
                 (A) (A) (A) (A) (A) (A) (A) (A) (A) (A) (A) (A)
                 (A) (A) (A) (A) (A) (A) (A) (A) (A) (A) (A) (A)
                 (A) (A) (A) (A) (A) (A) (A) (A) (A) (A) (A) (A)
                 (A) (A) (A) (A) (A) (A) (A) (A)
       Virtual   (A) (A) (A) (A) (A) (A) (A) (A) (A) (A) (A) (A)
                 (A) (A) (A) (A) (A) (A) (A) (A) (A) (A) (A) (A)
                 (A) (A) (A) (A) (A) (A) (A) (A) (A) (A) (A) (A)
[...]
    13  C   -0.438031  -0.000408   0.006517  -0.021518   0.000369  -0.005573
    14  C   -0.332794   0.008174   0.008967  -0.019524  -0.006596   0.022150
    15  C    0.532230   0.445245  -0.014776  -0.015838  -0.000419  -0.000374
    16  H   -0.005642  -0.000032   0.000002  -0.000022  -0.000011  -0.000003
    17  C    0.045115  -0.013714   0.442471   0.004527  -0.011821   0.011479
    18  H    0.008226   0.000000   0.000121  -0.000019   0.041228  -0.027976
    19  C    6.467505  -0.029597  -0.040401   0.431377  -0.001122   0.000877
    20  H   -0.029597   0.449442  -0.000025   0.000302   0.000000   0.000000
    21  H   -0.040401  -0.000025   0.451703  -0.000078  -0.000101  -0.000149
    22  H    0.431377   0.000302  -0.000078   0.444623   0.000000   0.000000
    23  C   -0.001122   0.000000  -0.000101   0.000000   7.981413  -0.572654
    24  C    0.000877   0.000000  -0.000149   0.000000  -0.572654   6.762250
    25  C    0.000084   0.000000   0.000012   0.000000  -0.253934   0.122053
    26  C    0.000146   0.000000   0.000084   0.000000  -0.131218  -0.299254
    27  H    0.000010   0.000000   0.000000   0.000000   0.047379   0.358277
    28  C   -0.000065   0.000000   0.000001   0.000000  -0.160848  -0.362471
    29  H    0.000004   0.000000   0.000000   0.000000   0.018846   0.000297
    30  C    0.000118   0.000000   0.000032   0.000000  -0.406654  -0.244614
    31  H    0.000000   0.000000   0.000000   0.000000  -0.021580   0.004428
    32  H    0.000000   0.000000   0.000000   0.000000  -0.015703   0.008554
    33  H    0.000000   0.000000   0.000000   0.000000   0.016814  -0.023917
    34  C   -0.000017  -0.000001   0.000000   0.000000   0.005288  -0.001709
    35  C   -0.000005  -0.000001   0.000000   0.000000   0.011477   0.000732
    36  C    0.000002   0.000000   0.000000   0.000000  -0.012531  -0.007616
    37  C   -0.000032  -0.000001   0.000000   0.000000   0.003853   0.000359
    38  H    0.000015   0.000001   0.000000   0.000000   0.000229  -0.000013
    39  C    0.000000   0.000000   0.000000   0.000000  -0.007896  -0.001071
    40  H    0.000000   0.000000   0.000000   0.000000  -0.000828  -0.000239
    41  C    0.000000   0.000000   0.000000   0.000000  -0.001814  -0.000080
    42  H    0.000000   0.000000   0.000000   0.000000  -0.000005   0.000000
    43  H    0.000000   0.000000   0.000000   0.000000  -0.000009   0.000000
    44  H    0.000000   0.000000   0.000000   0.000000  -0.000002   0.000000
              25         26         27         28         29         30
     1  Pt  -0.020161   0.007301   0.011166  -0.000005  -0.002860  -0.000051
     2  Cl   0.000080   0.000119   0.000309  -0.000202  -0.000016  -0.000019
     3  Cl   0.000173  -0.000134   0.000446   0.000018  -0.000005  -0.000015
     4  Sn   0.001313  -0.000796   0.001371   0.001334  -0.001049   0.000000
     5  Cl  -0.000055   0.000015   0.000014  -0.000013   0.000000   0.000000
     6  Cl  -0.000018  -0.000070   0.000002  -0.000004   0.000002  -0.000003
     7  Cl   0.000887   0.000159  -0.000105  -0.000444  -0.000364  -0.000299
     8  P   -0.031748  -0.015033   0.004458   0.001467   0.030863   0.003647
     9  O    0.064385   0.000230  -0.000087  -0.003479   0.000579   0.000152
    10  O    0.000204   0.000085   0.000000  -0.000644  -0.001648  -0.000029
    11  O   -0.104120   0.019651  -0.002358   0.010142  -0.002270   0.002237
    12  C   -0.036527  -0.000707  -0.001233   0.001612  -0.000427   0.001260
    13  C   -0.006282  -0.000372  -0.000036   0.001978  -0.000436  -0.000023
    14  C    0.015260   0.003278   0.000456  -0.008195   0.000273  -0.003748
    15  C   -0.000116   0.000040  -0.000001   0.000188  -0.000024   0.000024
    16  H   -0.000058   0.000000   0.000000   0.000001   0.000000   0.000000
    17  C    0.001698   0.003492  -0.000109  -0.000210   0.000054   0.001667
    18  H   -0.002613  -0.003617   0.004074   0.000320   0.000015  -0.003813
    19  C    0.000084   0.000146   0.000010  -0.000065   0.000004   0.000118
    20  H    0.000000   0.000000   0.000000   0.000000   0.000000   0.000000
    21  H    0.000012   0.000084   0.000000   0.000001   0.000000   0.000032
    22  H    0.000000   0.000000   0.000000   0.000000   0.000000   0.000000
    23  C   -0.253934  -0.131218   0.047379  -0.160848   0.018846  -0.406654
    24  C    0.122053  -0.299254   0.358277  -0.362471   0.000297  -0.244614
    25  C    6.486261  -0.317395   0.001061  -0.084060   0.342399  -0.342508
    26  C   -0.317395   6.381715  -0.025433  -0.259324   0.000769   0.399596
    27  H    0.001061  -0.025433   0.471501   0.002491  -0.000040  -0.005666
    28  C   -0.084060  -0.259324   0.002491   6.359994   0.008593   0.112199
    29  H    0.342399   0.000769  -0.000040   0.008593   0.488179  -0.004241
    30  C   -0.342508   0.399596  -0.005666   0.112199  -0.004241   6.452364
    31  H    0.008712   0.447364  -0.000393  -0.013762   0.000001  -0.034516
    32  H    0.003103  -0.013431   0.000003   0.429828   0.000123  -0.024054
    33  H   -0.018961  -0.022350  -0.000021   0.017798  -0.000032   0.421348
    34  C    0.001906   0.000138   0.000002  -0.004098  -0.005704  -0.000548
    35  C   -0.003243  -0.000155   0.000005   0.000149   0.004905   0.000171
    36  C   -0.011747  -0.000538  -0.000011   0.002044   0.020539   0.000738
    37  C   -0.001418   0.000010   0.000000  -0.000550  -0.003585  -0.000062
    38  H   -0.000398   0.000000   0.000000   0.000011   0.000070   0.000000
    39  C    0.002139  -0.000056   0.000000   0.004590   0.000201   0.000338
    40  H    0.002377  -0.000016   0.000001   0.000251  -0.000932   0.000017
    41  C    0.002025  -0.000001   0.000000   0.000745   0.001350   0.000042
    42  H    0.000014   0.000000   0.000000   0.000002  -0.000004   0.000000
    43  H    0.000008   0.000000   0.000000  -0.000015  -0.000071   0.000000
    44  H   -0.000001   0.000000   0.000000   0.000005   0.000010   0.000000
              31         32         33         34         35         36
     1  Pt   0.000087  -0.000110  -0.000094  -0.050833  -0.012464   0.002692
     2  Cl  -0.000020  -0.000001   0.000002   0.000012   0.000398   0.000347
     3  Cl   0.000001   0.000000   0.000000  -0.000571   0.000416  -0.000139
     4  Sn   0.000612  -0.000027   0.000062   0.001554  -0.000168  -0.011169
     5  Cl   0.000000   0.000000   0.000000  -0.000221   0.000221  -0.000174
     6  Cl  -0.000003   0.000000   0.000000   0.000183   0.000003  -0.000058
     7  Cl  -0.000013  -0.000053   0.000002  -0.020658  -0.001706   0.002269
     8  P    0.000579   0.002585   0.000041  -0.173749  -0.055110  -0.051604
     9  O    0.000000  -0.000006   0.000000   0.014182   0.013521   0.010182
    10  O    0.000000   0.000000   0.000000   0.351821  -0.099349  -0.109970
    11  O    0.000015   0.000009   0.000001   0.060677  -0.001775   0.010319
    12  C   -0.000001   0.000068  -0.000004   0.016452  -0.013275   0.003920
    13  C    0.000000   0.000007   0.000000  -0.009563   0.011587   0.000804
    14  C   -0.000081  -0.000064   0.000007  -0.002188  -0.005252  -0.000406
    15  C    0.000000   0.000000   0.000000  -0.001460   0.001467   0.000052
    16  H    0.000000   0.000000   0.000000   0.002927  -0.000771   0.000202
    17  C    0.000021  -0.000008   0.000006  -0.000098  -0.000217  -0.000026
    18  H   -0.000032   0.000002  -0.000003   0.000192  -0.000049   0.000052
    19  C    0.000000   0.000000   0.000000  -0.000017  -0.000005   0.000002
    20  H    0.000000   0.000000   0.000000  -0.000001  -0.000001   0.000000
    21  H    0.000000   0.000000   0.000000   0.000000   0.000000   0.000000
    22  H    0.000000   0.000000   0.000000   0.000000   0.000000   0.000000
    23  C   -0.021580  -0.015703   0.016814   0.005288   0.011477  -0.012531
    24  C    0.004428   0.008554  -0.023917  -0.001709   0.000732  -0.007616
    25  C    0.008712   0.003103  -0.018961   0.001906  -0.003243  -0.011747
    26  C    0.447364  -0.013431  -0.022350   0.000138  -0.000155  -0.000538
    27  H   -0.000393   0.000003  -0.000021   0.000002   0.000005  -0.000011
    28  C   -0.013762   0.429828   0.017798  -0.004098   0.000149   0.002044
    29  H    0.000001   0.000123  -0.000032  -0.005704   0.004905   0.020539
    30  C   -0.034516  -0.024054   0.421348  -0.000548   0.000171   0.000738
    31  H    0.452660  -0.000022  -0.000115   0.000000   0.000000   0.000000
    32  H   -0.000022   0.451976   0.000278   0.000004  -0.000001  -0.000007
    33  H   -0.000115   0.000278   0.444922   0.000000   0.000000   0.000000
    34  C    0.000000   0.000004   0.000000   7.426829  -0.084191  -0.257459
    35  C    0.000000  -0.000001   0.000000  -0.084191   6.208928   0.125383
    36  C    0.000000  -0.000007   0.000000  -0.257459   0.125383   6.353890
    37  C    0.000000  -0.000005   0.000000  -0.175713  -0.184095  -0.289877
    38  H    0.000000   0.000000   0.000000   0.018338   0.373738  -0.002100
    39  C    0.000000  -0.000028   0.000000  -0.158546  -0.282028  -0.146160
    40  H    0.000000   0.000000   0.000000   0.021620   0.002346   0.365924
    41  C    0.000000  -0.000030   0.000000  -0.329985  -0.226689  -0.265340
    42  H    0.000000   0.000000   0.000000  -0.013903   0.008928   0.008986
    43  H    0.000000   0.000000   0.000000  -0.015197   0.008165   0.005125
    44  H    0.000000   0.000000   0.000000   0.016269  -0.020837  -0.019497
              37         38         39         40         41         42
     1  Pt   0.004336  -0.002789  -0.000605  -0.001341  -0.000592  -0.000166
     2  Cl  -0.000159  -0.000198   0.000082   0.000018  -0.000036  -0.000003
     3  Cl   0.000033   0.000003  -0.000039  -0.000010  -0.000005   0.000000
     4  Sn   0.000573  -0.000397   0.002826  -0.002759   0.000311  -0.000109
     5  Cl   0.000041  -0.000005  -0.000330  -0.000295  -0.000073   0.000000
     6  Cl  -0.000005   0.000002  -0.000010   0.000066   0.000002   0.000000
     7  Cl  -0.000887   0.000053   0.003622   0.024792   0.002774   0.000006
     8  P   -0.015513   0.014420  -0.010940   0.008876   0.003216   0.002260
     9  O   -0.007417   0.002152   0.000800   0.000011  -0.000137  -0.000005
    10  O    0.014139  -0.001432   0.008635   0.000588   0.001572   0.000004
    11  O    0.000061   0.000041   0.000596   0.000726  -0.000337   0.000000
    12  C   -0.002922   0.001553   0.000533   0.000002  -0.000362  -0.000015
    13  C    0.000693  -0.001479   0.000114  -0.000001   0.000001   0.000008
    14  C   -0.000371   0.000080   0.000037  -0.000008  -0.000055   0.000000
    15  C   -0.000496  -0.000090   0.000004   0.000000   0.000011  -0.000003
    16  H   -0.001537   0.000412   0.000004   0.000000  -0.000101  -0.000002
    17  C    0.000021  -0.000008   0.000000   0.000000   0.000000   0.000000
    18  H   -0.000008   0.000001   0.000002   0.000000   0.000000   0.000000
    19  C   -0.000032   0.000015   0.000000   0.000000   0.000000   0.000000
    20  H   -0.000001   0.000001   0.000000   0.000000   0.000000   0.000000
    21  H    0.000000   0.000000   0.000000   0.000000   0.000000   0.000000
    22  H    0.000000   0.000000   0.000000   0.000000   0.000000   0.000000
    23  C    0.003853   0.000229  -0.007896  -0.000828  -0.001814  -0.000005
    24  C    0.000359  -0.000013  -0.001071  -0.000239  -0.000080   0.000000
    25  C   -0.001418  -0.000398   0.002139   0.002377   0.002025   0.000014
    26  C    0.000010   0.000000  -0.000056  -0.000016  -0.000001   0.000000
    27  H    0.000000   0.000000   0.000000   0.000001   0.000000   0.000000
    28  C   -0.000550   0.000011   0.004590   0.000251   0.000745   0.000002
    29  H   -0.003585   0.000070   0.000201  -0.000932   0.001350  -0.000004
    30  C   -0.000062   0.000000   0.000338   0.000017   0.000042   0.000000
    31  H    0.000000   0.000000   0.000000   0.000000   0.000000   0.000000
    32  H   -0.000005   0.000000  -0.000028   0.000000  -0.000030   0.000000
    33  H    0.000000   0.000000   0.000000   0.000000   0.000000   0.000000
    34  C   -0.175713   0.018338  -0.158546   0.021620  -0.329985  -0.013903
    35  C   -0.184095   0.373738  -0.282028   0.002346  -0.226689   0.008928
    36  C   -0.289877  -0.002100  -0.146160   0.365924  -0.265340   0.008986
    37  C    6.166975  -0.001688  -0.101177   0.000351   0.383597   0.446057
    38  H   -0.001688   0.466434   0.002312  -0.000028  -0.005217   0.000171
    39  C   -0.101177   0.002312   6.064553   0.002178   0.242529  -0.017438
    40  H    0.000351  -0.000028   0.002178   0.461075  -0.004370   0.000002
    41  C    0.383597  -0.005217   0.242529  -0.004370   6.101996  -0.039912
    42  H    0.446057   0.000171  -0.017438   0.000002  -0.039912   0.447264
    43  H   -0.013499   0.000002   0.433561   0.000081  -0.026600  -0.000025
    44  H   -0.009330  -0.000027   0.002341  -0.000032   0.421842   0.000245
              43         44
     1  Pt  -0.000281  -0.000002
     2  Cl  -0.000001   0.000000
     3  Cl   0.000000   0.000000
     4  Sn   0.000218   0.000179
     5  Cl  -0.000004   0.000000
     6  Cl   0.000000   0.000000
     7  Cl   0.000465  -0.000064
     8  P    0.001528   0.000104
     9  O    0.000000   0.000000
    10  O    0.000002   0.000001
    11  O    0.000002   0.000000
    12  C    0.000000   0.000000
    13  C    0.000000   0.000000
    14  C    0.000000   0.000000
    15  C    0.000000   0.000000
    16  H    0.000000   0.000000
    17  C    0.000000   0.000000
    18  H    0.000000   0.000000
    19  C    0.000000   0.000000
    20  H    0.000000   0.000000
    21  H    0.000000   0.000000
    22  H    0.000000   0.000000
    23  C   -0.000009  -0.000002
    24  C    0.000000   0.000000
    25  C    0.000008  -0.000001
    26  C    0.000000   0.000000
    27  H    0.000000   0.000000
    28  C   -0.000015   0.000005
    29  H   -0.000071   0.000010
    30  C    0.000000   0.000000
    31  H    0.000000   0.000000
    32  H    0.000000   0.000000
    33  H    0.000000   0.000000
    34  C   -0.015197   0.016269
    35  C    0.008165  -0.020837
    36  C    0.005125  -0.019497
    37  C   -0.013499  -0.009330
    38  H    0.000002  -0.000027
    39  C    0.433561   0.002341
    40  H    0.000081  -0.000032
    41  C   -0.026600   0.421842
    42  H   -0.000025   0.000245
    43  H    0.449001   0.000321
    44  H    0.000321   0.444052
 Mulliken charges:
               1
     1  Pt   0.185732
     2  Cl  -0.534948
     3  Cl  -0.515789
     4  Sn   0.313158
     5  Cl  -0.224325
     6  Cl  -0.217658
     7  Cl  -0.227827
     8  P    0.172894
     9  O   -0.095939
    10  O   -0.076281
    11  O   -0.093286
    12  C   -0.442505
    13  C    0.214783
    14  C    0.178245
    15  C   -0.163845
    16  H    0.140281
    17  C   -0.040555
    18  H    0.110411
    19  C   -0.330249
    20  H    0.158577
    21  H    0.156899
    22  H    0.160404
    23  C   -0.573115
    24  C    0.329299
    25  C    0.179208
    26  C   -0.174288
    27  H    0.132467
    28  C   -0.057371
    29  H    0.105633
    30  C   -0.325087
    31  H    0.156056
    32  H    0.157010
    33  H    0.164215
    34  C   -0.631980
    35  C    0.218839
    36  C    0.272959
    37  C   -0.210751
    38  H    0.135827
    39  C   -0.045673
    40  H    0.119557
    41  C   -0.260274
    42  H    0.157645
    43  H    0.157224
    44  H    0.164422
 Sum of Mulliken charges =  -1.00000
 Mulliken charges with hydrogens summed into heavy atoms:
               1
     1  Pt   0.185732
     2  Cl  -0.534948
     3  Cl  -0.515789
     4  Sn   0.313158
     5  Cl  -0.224325
     6  Cl  -0.217658
     7  Cl  -0.227827
     8  P    0.172894
     9  O   -0.095939
    10  O   -0.076281
    11  O   -0.093286
    12  C   -0.442505
    13  C    0.355065
    14  C    0.288657
    15  C   -0.005268
    17  C    0.116344
    19  C   -0.169845
    23  C   -0.573115
    24  C    0.461766
    25  C    0.284841
    26  C   -0.018233
    28  C    0.099639
    30  C   -0.160872
    34  C   -0.631980
    35  C    0.354667
    36  C    0.392516
    37  C   -0.053106
    39  C    0.111551
    41  C   -0.095852
 Electronic spatial extent (au):  <R**2>=          18661.7670
 Charge=             -1.0000 electrons
 Dipole moment (field-independent basis, Debye):
    X=             18.4003    Y=              7.3847    Z=              1.2353  Tot=             19.8653
 Quadrupole moment (field-independent basis, Debye-Ang):
   XX=           -298.9396   YY=           -290.2613   ZZ=           -251.9951
   XY=              2.0172   XZ=              1.9540   YZ=            -12.4035
 Traceless Quadrupole moment (field-independent basis, Debye-Ang):
   XX=            -18.5410   YY=             -9.8626   ZZ=             28.4036
   XY=              2.0172   XZ=              1.9540   YZ=            -12.4035
 Octapole moment (field-independent basis, Debye-Ang**2):
  XXX=             29.8462  YYY=             34.9924  ZZZ=              0.7271  XYY=             52.8651
  XXY=            -30.0938  XXZ=            -20.6094  XZZ=             27.5044  YZZ=            -58.8158
  YYZ=             -0.6331  XYZ=             -6.2485
 Hexadecapole moment (field-independent basis, Debye-Ang**3):
 XXXX=         -13350.4487 YYYY=          -7692.2780 ZZZZ=          -4129.0525 XXXY=             63.2681
 XXXZ=             45.8873 YYYX=             85.2027 YYYZ=           -140.2302 ZZZX=             56.0943
 ZZZY=              2.1338 XXYY=          -3211.5495 XXZZ=          -2630.9575 YYZZ=          -2037.6420
 XXYZ=             27.6856 YYXZ=            -87.9843 ZZXY=             48.5120
 N-N= 8.286549558521D+03 E-N=-7.969005485183D+04  KE= 2.624880754664D+04
 Calculating spin-rotation constants.
 Leave Link  601 at Tue Feb  4 09:16:02 2020, MaxMem=  4026531840 cpu:       536.1
 (Enter /scr/programs/g09/l9999.exe)
 1\1\GINC-NEQC27\SP\RPBEPBE\Gen\C18H15Cl5O3P1Pt1Sn1(1-)\GUEST\04-Feb-20
 20\0\\#PBEPBE/gen scf=(maxcycle=500,conver=4) NMR=GIAO Scrf=(solvent=D
 ichloromethane)\\estrutura 28\\-1,1\Pt,0,0.908695,-1.291686,0.247169\C
 l,0,-0.373505,-3.275477,0.812527\Cl,0,2.956248,-2.605954,0.210229\Sn,0
 ,2.681624,0.544959,-0.243712\Cl,0,4.162433,1.045734,1.597166\Cl,0,4.26
 7488,0.198504,-2.02784\Cl,0,2.073118,2.823535,-0.860215\P,0,-0.814435,
 0.103221,0.263346\O,0,-2.346767,-0.292242,0.629677\O,0,-0.553426,1.279
 593,1.355877\O,0,-0.985969,0.913909,-1.147463\C,0,-3.1225,-1.443645,0.
 56806\C,0,-3.692707,-1.891321,1.76073\C,0,-3.387155,-2.079762,-0.64568
 9\C,0,-4.534616,-3.005165,1.737799\H,0,-3.464103,-1.370931,2.692728\C,
 0,-4.227465,-3.196404,-0.654404\H,0,-2.939657,-1.710321,-1.568295\C,0,
 -4.802148,-3.664189,0.53145\H,0,-4.979146,-3.362334,2.66955\H,0,-4.433
 05,-3.703554,-1.600878\H,0,-5.456945,-4.538381,0.51731\C,0,-2.085906,1
 .059195,-1.981876\C,0,-2.113114,0.312105,-3.165264\C,0,-3.104158,1.968
 982,-1.67898\C,0,-3.177861,0.477501,-4.054344\H,0,-1.298223,-0.385572,
 -3.37071\C,0,-4.162516,2.125761,-2.577881\H,0,-3.05927,2.549086,-0.755
 792\C,0,-4.205785,1.383546,-3.76461\H,0,-3.201634,-0.106125,-4.978621\
 H,0,-4.959128,2.839957,-2.348757\H,0,-5.035462,1.513473,-4.461652\C,0,
 -1.382719,2.359826,1.663609\C,0,-2.400116,2.201279,2.610758\C,0,-1.124
 445,3.598515,1.073137\C,0,-3.173938,3.310687,2.96415\H,0,-2.5704,1.223
 888,3.061259\C,0,-1.904745,4.699405,1.439084\H,0,-0.312276,3.684373,0.
 346327\C,0,-2.929597,4.55884,2.382549\H,0,-3.972232,3.195344,3.703613\
 H,0,-1.706256,5.673928,0.985784\H,0,-3.535167,5.423595,2.668249\\Versi
 on=EM64L-G09RevD.01\State=1-A\HF=-26652.3180016\RMSD=3.997e-05\Dipole=
 -7.2392368,2.9053602,-0.4860241\Quadrupole=-13.7847454,-7.3326052,21.1
 173506,-1.4997074,1.4527437,9.2217152\PG=C01 [X(C18H15Cl5O3P1Pt1Sn1)]\
 \@


 KNOWLEDGE IS EXPERIMENT'S DAUGHTER.
 -- LEONARDO DA VINCI, IN "PENSIERI" CA. 1492
 Job cpu time:       0 days 15 hours  7 minutes 39.0 seconds.
 File lengths (MBytes):  RWF=    955 Int=      0 D2E=      0 Chk=     69 Scr=      1
 Normal termination of Gaussian 09 at Tue Feb  4 09:16:02 2020.
