 Entering Gaussian System, Link 0=g09
 Input=/home/nqtcm/diego/estrutura75.com
 Output=/home/nqtcm/diego/estrutura75.log
 Initial command:
 /scr/programas/g09/l1.exe "/scr/nqtcm/Gau-25039.inp" -scrdir="/scr/nqtcm/"
 Entering Link 1 = /scr/programas/g09/l1.exe PID=     25041.
  
 Copyright (c) 1988,1990,1992,1993,1995,1998,2003,2009,2013,
            Gaussian, Inc.  All Rights Reserved.
  
 This is part of the Gaussian(R) 09 program.  It is based on
 the Gaussian(R) 03 system (copyright 2003, Gaussian, Inc.),
 the Gaussian(R) 98 system (copyright 1998, Gaussian, Inc.),
 the Gaussian(R) 94 system (copyright 1995, Gaussian, Inc.),
 the Gaussian 92(TM) system (copyright 1992, Gaussian, Inc.),
 the Gaussian 90(TM) system (copyright 1990, Gaussian, Inc.),
 the Gaussian 88(TM) system (copyright 1988, Gaussian, Inc.),
 the Gaussian 86(TM) system (copyright 1986, Carnegie Mellon
 University), and the Gaussian 82(TM) system (copyright 1983,
 Carnegie Mellon University). Gaussian is a federally registered
 trademark of Gaussian, Inc.
  
 This software contains proprietary and confidential information,
 including trade secrets, belonging to Gaussian, Inc.
  
 This software is provided under written license and may be
 used, copied, transmitted, or stored only in accord with that
 written license.
  
 The following legend is applicable only to US Government
 contracts under FAR:
  
                    RESTRICTED RIGHTS LEGEND
  
 Use, reproduction and disclosure by the US Government is
 subject to restrictions as set forth in subparagraphs (a)
 and (c) of the Commercial Computer Software - Restricted
 Rights clause in FAR 52.227-19.
  
 Gaussian, Inc.
 340 Quinnipiac St., Bldg. 40, Wallingford CT 06492
  
  
 ---------------------------------------------------------------
 Warning -- This program may not be used in any manner that
 competes with the business of Gaussian, Inc. or will provide
 assistance to any competitor of Gaussian, Inc.  The licensee
 of this program is prohibited from giving any competitor of
 Gaussian, Inc. access to this program.  By using this program,
 the user acknowledges that Gaussian, Inc. is engaged in the
 business of creating and licensing software in the field of
 computational chemistry and represents and warrants to the
 licensee that it is not a competitor of Gaussian, Inc. and that
 it will not use this program in any manner prohibited above.
 ---------------------------------------------------------------
  

 Cite this work as:
 Gaussian 09, Revision D.01,
 M. J. Frisch, G. W. Trucks, H. B. Schlegel, G. E. Scuseria, 
 M. A. Robb, J. R. Cheeseman, G. Scalmani, V. Barone, B. Mennucci, 
 G. A. Petersson, H. Nakatsuji, M. Caricato, X. Li, H. P. Hratchian, 
 A. F. Izmaylov, J. Bloino, G. Zheng, J. L. Sonnenberg, M. Hada, 
 M. Ehara, K. Toyota, R. Fukuda, J. Hasegawa, M. Ishida, T. Nakajima, 
 Y. Honda, O. Kitao, H. Nakai, T. Vreven, J. A. Montgomery, Jr., 
 J. E. Peralta, F. Ogliaro, M. Bearpark, J. J. Heyd, E. Brothers, 
 K. N. Kudin, V. N. Staroverov, T. Keith, R. Kobayashi, J. Normand, 
 K. Raghavachari, A. Rendell, J. C. Burant, S. S. Iyengar, J. Tomasi, 
 M. Cossi, N. Rega, J. M. Millam, M. Klene, J. E. Knox, J. B. Cross, 
 V. Bakken, C. Adamo, J. Jaramillo, R. Gomperts, R. E. Stratmann, 
 O. Yazyev, A. J. Austin, R. Cammi, C. Pomelli, J. W. Ochterski, 
 R. L. Martin, K. Morokuma, V. G. Zakrzewski, G. A. Voth, 
 P. Salvador, J. J. Dannenberg, S. Dapprich, A. D. Daniels, 
 O. Farkas, J. B. Foresman, J. V. Ortiz, J. Cioslowski, 
 and D. J. Fox, Gaussian, Inc., Wallingford CT, 2013.
 
 ******************************************
 Gaussian 09:  EM64L-G09RevD.01 24-Apr-2013
                25-Aug-2019 
 ******************************************
 %mem=7Gb
 %nproc=4
 Will use up to    4 processors via shared memory.
 ----------------------------------------------------------------------
 #PBEPBE/gen scf=(maxcycle=500,conver=4) NMR=GIAO Scrf=(solvent=Dichlor
 omethane)
 ----------------------------------------------------------------------
 1/38=1/1;
 2/12=2,17=6,18=5,40=1/2;
 3/5=7,11=2,16=1,25=1,30=1,70=2201,72=9,74=1009/1,2,8,3;
 4//1;
 5/5=2,6=4,7=500,38=5,53=9/2;
 8/6=1,10=90,11=11/1;
 10/13=100,45=16/2;
 6/7=2,8=2,9=2,10=2,28=1/1;
 99/9=1/99;
 Leave Link    1 at Sun Aug 25 05:55:03 2019, MaxMem=   939524096 cpu:         0.2
 (Enter /scr/programas/g09/l101.exe)
 ------------
 estrutura 75
 ------------
 Symbolic Z-matrix:
 Charge =  0 Multiplicity = 1
 Pt                   -0.49085  -0.00403  -0.06528 
 P                    -0.18258   2.385    -0.12597 
 P                    -0.8934   -2.36326   0.04362 
 C                     0.05157   2.98342   1.61245 
 H                     0.81218   2.3135    2.0434 
 H                    -0.89376   2.75002   2.1297 
 C                     0.4539    4.44488   1.82752 
 H                    -0.24763   5.15094   1.35842 
 H                     0.47561   4.66821   2.90606 
 H                     1.46001   4.65045   1.43267 
 C                     1.35695   2.87023  -1.06304 
 H                     1.4614    2.14236  -1.88185 
 C                    -1.52886   3.43183  -0.87155 
 H                    -1.04475   4.35558  -1.22092 
 H                    -1.86789   2.89561  -1.77209 
 C                    -2.72181   3.79232   0.01801 
 H                    -3.43026   4.40893  -0.55875 
 H                    -3.26215   2.90667   0.37545 
 H                    -2.41524   4.38399   0.89379 
 C                    -0.01544  -3.33191  -1.2681 
 H                    -0.26552  -4.39591  -1.12347 
 H                     1.06188  -3.23821  -1.05374 
 C                    -0.33221  -2.87929  -2.6959 
 H                    -1.38842  -3.04229  -2.95735 
 H                    -0.11147  -1.80908  -2.83198 
 H                     0.2821   -3.44278  -3.41846 
 C                    -2.67438  -2.86388  -0.10219 
 H                    -3.18869  -2.38921   0.7475 
 H                    -3.06669  -2.35787  -0.99768 
 C                    -2.96977  -4.36467  -0.15115 
 H                    -4.0597   -4.52559  -0.17453 
 H                    -2.55172  -4.84247  -1.04987 
 H                    -2.5826   -4.89896   0.73042 
 C                    -0.30876  -3.1294    1.62635 
 H                    -0.63227  -4.18321   1.62416 
 H                     0.79133  -3.13777   1.57339 
 C                    -0.779    -2.41214   2.89417 
 H                    -0.41456  -2.94529   3.78708 
 H                    -0.38915  -1.38218   2.934 
 H                    -1.87799  -2.36168   2.96429 
 Sn                    2.22308  -0.39493   0.02955 
 Cl                    3.5728    0.00561  -1.97973 
 Cl                    3.45935   1.01334   1.62845 
 Cl                    3.28409  -2.5288    0.64724 
 C                     1.48905   4.28974  -1.62413 
 H                     2.49272   4.40849  -2.06235 
 H                     0.76098   4.48712  -2.42521 
 H                     1.37096   5.06728  -0.85565 
 H                     2.18247   2.66063  -0.36288 
 C                    -2.52125   0.30243  -0.06197 
 C                    -3.23511   0.36526   1.14826 
 C                    -3.24207   0.42456  -1.26262 
 C                    -4.62553   0.54077   1.15789 
 H                    -2.70692   0.27488   2.10176 
 C                    -4.63224   0.6036   -1.25435 
 H                    -2.72124   0.37572  -2.22337 
 C                    -5.33091   0.66105  -0.04404 
 H                    -5.15719   0.58598   2.11278 
 H                    -5.16994   0.69648  -2.20247 
 H                    -6.41526   0.79862  -0.03744 
 
 NAtoms=     60 NQM=       60 NQMF=       0 NMMI=      0 NMMIF=      0
                NMic=       0 NMicF=      0.
                    Isotopes and Nuclear Properties:
 (Nuclear quadrupole moments (NQMom) in fm**2, nuclear magnetic moments (NMagM)
  in nuclear magnetons)

  Atom         1           2           3           4           5           6           7           8           9          10
 IAtWgt=         195          31          31          12           1           1          12           1           1           1
 AtmWgt= 194.9648000  30.9737634  30.9737634  12.0000000   1.0078250   1.0078250  12.0000000   1.0078250   1.0078250   1.0078250
 NucSpn=           1           1           1           0           1           1           0           1           1           1
 AtZEff=   0.0000000   0.0000000   0.0000000   0.0000000   0.0000000   0.0000000   0.0000000   0.0000000   0.0000000   0.0000000
 NQMom=    0.0000000   0.0000000   0.0000000   0.0000000   0.0000000   0.0000000   0.0000000   0.0000000   0.0000000   0.0000000
 NMagM=    0.6095000   1.1316000   1.1316000   0.0000000   2.7928460   2.7928460   0.0000000   2.7928460   2.7928460   2.7928460
 AtZNuc=  78.0000000  15.0000000  15.0000000   6.0000000   1.0000000   1.0000000   6.0000000   1.0000000   1.0000000   1.0000000

  Atom        11          12          13          14          15          16          17          18          19          20
 IAtWgt=          12           1          12           1           1          12           1           1           1          12
 AtmWgt=  12.0000000   1.0078250  12.0000000   1.0078250   1.0078250  12.0000000   1.0078250   1.0078250   1.0078250  12.0000000
 NucSpn=           0           1           0           1           1           0           1           1           1           0
 AtZEff=   0.0000000   0.0000000   0.0000000   0.0000000   0.0000000   0.0000000   0.0000000   0.0000000   0.0000000   0.0000000
 NQMom=    0.0000000   0.0000000   0.0000000   0.0000000   0.0000000   0.0000000   0.0000000   0.0000000   0.0000000   0.0000000
 NMagM=    0.0000000   2.7928460   0.0000000   2.7928460   2.7928460   0.0000000   2.7928460   2.7928460   2.7928460   0.0000000
 AtZNuc=   6.0000000   1.0000000   6.0000000   1.0000000   1.0000000   6.0000000   1.0000000   1.0000000   1.0000000   6.0000000

  Atom        21          22          23          24          25          26          27          28          29          30
 IAtWgt=           1           1          12           1           1           1          12           1           1          12
 AtmWgt=   1.0078250   1.0078250  12.0000000   1.0078250   1.0078250   1.0078250  12.0000000   1.0078250   1.0078250  12.0000000
 NucSpn=           1           1           0           1           1           1           0           1           1           0
 AtZEff=   0.0000000   0.0000000   0.0000000   0.0000000   0.0000000   0.0000000   0.0000000   0.0000000   0.0000000   0.0000000
 NQMom=    0.0000000   0.0000000   0.0000000   0.0000000   0.0000000   0.0000000   0.0000000   0.0000000   0.0000000   0.0000000
 NMagM=    2.7928460   2.7928460   0.0000000   2.7928460   2.7928460   2.7928460   0.0000000   2.7928460   2.7928460   0.0000000
 AtZNuc=   1.0000000   1.0000000   6.0000000   1.0000000   1.0000000   1.0000000   6.0000000   1.0000000   1.0000000   6.0000000

  Atom        31          32          33          34          35          36          37          38          39          40
 IAtWgt=           1           1           1          12           1           1          12           1           1           1
 AtmWgt=   1.0078250   1.0078250   1.0078250  12.0000000   1.0078250   1.0078250  12.0000000   1.0078250   1.0078250   1.0078250
 NucSpn=           1           1           1           0           1           1           0           1           1           1
 AtZEff=   0.0000000   0.0000000   0.0000000   0.0000000   0.0000000   0.0000000   0.0000000   0.0000000   0.0000000   0.0000000
 NQMom=    0.0000000   0.0000000   0.0000000   0.0000000   0.0000000   0.0000000   0.0000000   0.0000000   0.0000000   0.0000000
 NMagM=    2.7928460   2.7928460   2.7928460   0.0000000   2.7928460   2.7928460   0.0000000   2.7928460   2.7928460   2.7928460
 AtZNuc=   1.0000000   1.0000000   1.0000000   6.0000000   1.0000000   1.0000000   6.0000000   1.0000000   1.0000000   1.0000000

  Atom        41          42          43          44          45          46          47          48          49          50
 IAtWgt=         118          35          35          35          12           1           1           1           1          12
 AtmWgt= 117.9018000  34.9688527  34.9688527  34.9688527  12.0000000   1.0078250   1.0078250   1.0078250   1.0078250  12.0000000
 NucSpn=           0           3           3           3           0           1           1           1           1           0
 AtZEff=   0.0000000   0.0000000   0.0000000   0.0000000   0.0000000   0.0000000   0.0000000   0.0000000   0.0000000   0.0000000
 NQMom=    0.0000000  -8.1650000  -8.1650000  -8.1650000   0.0000000   0.0000000   0.0000000   0.0000000   0.0000000   0.0000000
 NMagM=    0.0000000   0.8218740   0.8218740   0.8218740   0.0000000   2.7928460   2.7928460   2.7928460   2.7928460   0.0000000
 AtZNuc=  50.0000000  17.0000000  17.0000000  17.0000000   6.0000000   1.0000000   1.0000000   1.0000000   1.0000000   6.0000000

  Atom        51          52          53          54          55          56          57          58          59          60
 IAtWgt=          12          12          12           1          12           1          12           1           1           1
 AtmWgt=  12.0000000  12.0000000  12.0000000   1.0078250  12.0000000   1.0078250  12.0000000   1.0078250   1.0078250   1.0078250
 NucSpn=           0           0           0           1           0           1           0           1           1           1
 AtZEff=   0.0000000   0.0000000   0.0000000   0.0000000   0.0000000   0.0000000   0.0000000   0.0000000   0.0000000   0.0000000
 NQMom=    0.0000000   0.0000000   0.0000000   0.0000000   0.0000000   0.0000000   0.0000000   0.0000000   0.0000000   0.0000000
 NMagM=    0.0000000   0.0000000   0.0000000   2.7928460   0.0000000   2.7928460   0.0000000   2.7928460   2.7928460   2.7928460
 AtZNuc=   6.0000000   6.0000000   6.0000000   1.0000000   6.0000000   1.0000000   6.0000000   1.0000000   1.0000000   1.0000000
 Leave Link  101 at Sun Aug 25 05:55:03 2019, MaxMem=   939524096 cpu:         0.6
 (Enter /scr/programas/g09/l202.exe)
 Stoichiometry    C18H35Cl3P2PtSn
 Framework group  C1[X(C18H35Cl3P2PtSn)]
 Deg. of freedom   174
 Full point group                 C1      NOp   1
 Largest Abelian subgroup         C1      NOp   1
 Largest concise Abelian subgroup C1      NOp   1
                         Standard orientation:                         
 ---------------------------------------------------------------------
 Center     Atomic      Atomic             Coordinates (Angstroms)
 Number     Number       Type             X           Y           Z
 ---------------------------------------------------------------------
      1         78           0       -0.490848   -0.004029   -0.065283
      2         15           0       -0.182583    2.385000   -0.125972
      3         15           0       -0.893397   -2.363261    0.043617
      4          6           0        0.051573    2.983417    1.612452
      5          1           0        0.812181    2.313501    2.043402
      6          1           0       -0.893756    2.750019    2.129698
      7          6           0        0.453904    4.444880    1.827524
      8          1           0       -0.247633    5.150938    1.358419
      9          1           0        0.475610    4.668210    2.906058
     10          1           0        1.460012    4.650446    1.432670
     11          6           0        1.356950    2.870225   -1.063036
     12          1           0        1.461404    2.142359   -1.881849
     13          6           0       -1.528864    3.431829   -0.871546
     14          1           0       -1.044750    4.355577   -1.220922
     15          1           0       -1.867889    2.895610   -1.772085
     16          6           0       -2.721811    3.792320    0.018007
     17          1           0       -3.430259    4.408928   -0.558749
     18          1           0       -3.262151    2.906668    0.375453
     19          1           0       -2.415244    4.383986    0.893786
     20          6           0       -0.015439   -3.331907   -1.268098
     21          1           0       -0.265521   -4.395908   -1.123473
     22          1           0        1.061880   -3.238213   -1.053736
     23          6           0       -0.332211   -2.879289   -2.695898
     24          1           0       -1.388419   -3.042293   -2.957351
     25          1           0       -0.111474   -1.809083   -2.831984
     26          1           0        0.282096   -3.442784   -3.418464
     27          6           0       -2.674379   -2.863880   -0.102185
     28          1           0       -3.188689   -2.389210    0.747502
     29          1           0       -3.066692   -2.357874   -0.997677
     30          6           0       -2.969768   -4.364674   -0.151150
     31          1           0       -4.059697   -4.525593   -0.174528
     32          1           0       -2.551720   -4.842471   -1.049873
     33          1           0       -2.582603   -4.898962    0.730420
     34          6           0       -0.308759   -3.129402    1.626350
     35          1           0       -0.632267   -4.183212    1.624164
     36          1           0        0.791326   -3.137774    1.573389
     37          6           0       -0.778997   -2.412144    2.894171
     38          1           0       -0.414561   -2.945288    3.787081
     39          1           0       -0.389148   -1.382179    2.933996
     40          1           0       -1.877987   -2.361679    2.964293
     41         50           0        2.223084   -0.394926    0.029550
     42         17           0        3.572804    0.005614   -1.979730
     43         17           0        3.459348    1.013343    1.628447
     44         17           0        3.284093   -2.528795    0.647240
     45          6           0        1.489053    4.289742   -1.624134
     46          1           0        2.492721    4.408492   -2.062353
     47          1           0        0.760983    4.487120   -2.425214
     48          1           0        1.370959    5.067276   -0.855654
     49          1           0        2.182473    2.660627   -0.362883
     50          6           0       -2.521245    0.302434   -0.061968
     51          6           0       -3.235115    0.365262    1.148262
     52          6           0       -3.242072    0.424563   -1.262615
     53          6           0       -4.625530    0.540774    1.157885
     54          1           0       -2.706923    0.274877    2.101761
     55          6           0       -4.632240    0.603603   -1.254347
     56          1           0       -2.721244    0.375720   -2.223365
     57          6           0       -5.330911    0.661047   -0.044035
     58          1           0       -5.157192    0.585975    2.112783
     59          1           0       -5.169938    0.696476   -2.202465
     60          1           0       -6.415261    0.798616   -0.037436
 ---------------------------------------------------------------------
 Rotational constants (GHZ):      0.1406304      0.1127919      0.0783668
 Leave Link  202 at Sun Aug 25 05:55:03 2019, MaxMem=   939524096 cpu:         0.0
 (Enter /scr/programas/g09/l301.exe)
 General basis read from cards:  (5D, 7F)
 Centers:       5      6      8      9     10     12     14     15     17     18
 Centers:      19     21     22     24     25     26     28     29     31     32
 Centers:      33     35     36     38     39     40     46     47     48     49
 Centers:      54     56     58     59     60
 S 5 1.00
     Exponent=  2.8295215633D+02 Coefficients=  4.3000000000D-04
     Exponent=  8.7062201949D+01 Coefficients=  5.1000000000D-04
     Exponent=  2.6788369830D+01 Coefficients=  6.1600000000D-03
     Exponent=  8.2425753324D+00 Coefficients=  1.3030000000D-02
     Exponent=  2.5361770254D+00 Coefficients=  9.9490000000D-02
 S 1 1.00
     Exponent=  7.8036216165D-01 Coefficients=  1.0000000000D+00
 S 1 1.00
     Exponent=  2.4011143435D-01 Coefficients=  1.0000000000D+00
 P 1 1.00
     Exponent=  8.8150000000D-01 Coefficients=  1.0000000000D+00
 P 1 1.00
     Exponent=  1.7989200000D-01 Coefficients=  1.0000000000D+00
 ****
 Centers:       4      7     11     13     16     20     23     27     30     34
 Centers:      37     45     50     51     52     53     55     57
 S 6 1.00
     Exponent=  8.8461235339D+03 Coefficients=  5.3000000000D-04
     Exponent=  2.9487078446D+03 Coefficients=  7.7000000000D-04
     Exponent=  9.8290261488D+02 Coefficients=  4.0500000000D-03
     Exponent=  3.2763420496D+02 Coefficients=  1.4030000000D-02
     Exponent=  1.0921140165D+02 Coefficients=  5.3450000000D-02
     Exponent=  3.6403800551D+01 Coefficients=  1.7027000000D-01
 S 1 1.00
     Exponent=  1.2134600184D+01 Coefficients=  1.0000000000D+00
 S 1 1.00
     Exponent=  4.0448667279D+00 Coefficients=  1.0000000000D+00
 S 1 1.00
     Exponent=  1.3482889093D+00 Coefficients=  1.0000000000D+00
 S 1 1.00
     Exponent=  4.4942963643D-01 Coefficients=  1.0000000000D+00
 S 1 1.00
     Exponent=  1.4980987881D-01 Coefficients=  1.0000000000D+00
 P 4 1.00
     Exponent=  3.7294093393D+01 Coefficients=  3.9600000000D-03
     Exponent=  1.1475105659D+01 Coefficients=  1.8890000000D-02
     Exponent=  3.5308017414D+00 Coefficients=  9.4610000000D-02
     Exponent=  1.0864005358D+00 Coefficients=  3.1889000000D-01
 P 1 1.00
     Exponent=  3.3427708794D-01 Coefficients=  1.0000000000D+00
 P 1 1.00
     Exponent=  1.0285448860D-01 Coefficients=  1.0000000000D+00
 D 1 1.00
     Exponent=  4.7750000000D-01 Coefficients=  1.0000000000D+00
 D 1 1.00
     Exponent=  1.1998000000D-01 Coefficients=  1.0000000000D+00
 ****
 Centers:       2      3
 S 7 1.00
     Exponent=  5.9538004301D+04 Coefficients=  9.5000000000D-04
     Exponent=  2.1650183382D+04 Coefficients=  6.1000000000D-04
     Exponent=  7.8727939572D+03 Coefficients=  3.7500000000D-03
     Exponent=  2.8628341663D+03 Coefficients=  9.6300000000D-03
     Exponent=  1.0410306059D+03 Coefficients=  3.2430000000D-02
     Exponent=  3.7855658397D+02 Coefficients=  9.9500000000D-02
     Exponent=  1.3765693962D+02 Coefficients=  2.6570000000D-01
 S 1 1.00
     Exponent=  5.0057068954D+01 Coefficients=  1.0000000000D+00
 S 1 1.00
     Exponent=  1.8202570529D+01 Coefficients=  1.0000000000D+00
 S 1 1.00
     Exponent=  6.6191165560D+00 Coefficients=  1.0000000000D+00
 S 1 1.00
     Exponent=  2.4069514749D+00 Coefficients=  1.0000000000D+00
 S 1 1.00
     Exponent=  8.7525508178D-01 Coefficients=  1.0000000000D+00
 S 1 1.00
     Exponent=  3.1827457519D-01 Coefficients=  1.0000000000D+00
 S 1 1.00
     Exponent=  1.1573620916D-01 Coefficients=  1.0000000000D+00
 S 1 1.00
     Exponent=  4.2085894240D-02 Coefficients=  1.0000000000D+00
 P 5 1.00
     Exponent=  4.8799672315D+02 Coefficients=  2.1600000000D-03
     Exponent=  1.6266557438D+02 Coefficients=  9.7900000000D-03
     Exponent=  5.4221858128D+01 Coefficients=  5.4850000000D-02
     Exponent=  1.8073952709D+01 Coefficients=  2.1770000000D-01
     Exponent=  6.0246509031D+00 Coefficients=  4.8978000000D-01
 P 1 1.00
     Exponent=  2.0082169677D+00 Coefficients=  1.0000000000D+00
 P 1 1.00
     Exponent=  6.6940565590D-01 Coefficients=  1.0000000000D+00
 P 1 1.00
     Exponent=  2.2313521863D-01 Coefficients=  1.0000000000D+00
 P 1 1.00
     Exponent=  7.4378406211D-02 Coefficients=  1.0000000000D+00
 P 1 1.00
     Exponent=  2.4792802070D-02 Coefficients=  1.0000000000D+00
 D 1 1.00
     Exponent=  3.5395000000D-01 Coefficients=  1.0000000000D+00
 D 1 1.00
     Exponent=  8.9098000000D-02 Coefficients=  1.0000000000D+00
 ****
 Centers:      42     43     44
 S 7 1.00
     Exponent=  7.7142817164D+04 Coefficients=  1.0600000000D-03
     Exponent=  2.8051933514D+04 Coefficients=  6.4000000000D-04
     Exponent=  1.0200703096D+04 Coefficients=  3.9600000000D-03
     Exponent=  3.7093465804D+03 Coefficients=  9.8300000000D-03
     Exponent=  1.3488533020D+03 Coefficients=  3.2690000000D-02
     Exponent=  4.9049210981D+02 Coefficients=  9.9520000000D-02
     Exponent=  1.7836076720D+02 Coefficients=  2.6555000000D-01
 S 1 1.00
     Exponent=  6.4858460801D+01 Coefficients=  1.0000000000D+00
 S 1 1.00
     Exponent=  2.3584894837D+01 Coefficients=  1.0000000000D+00
 S 1 1.00
     Exponent=  8.5763253951D+00 Coefficients=  1.0000000000D+00
 S 1 1.00
     Exponent=  3.1186637801D+00 Coefficients=  1.0000000000D+00
 S 1 1.00
     Exponent=  1.1340595564D+00 Coefficients=  1.0000000000D+00
 S 1 1.00
     Exponent=  4.1238529323D-01 Coefficients=  1.0000000000D+00
 S 1 1.00
     Exponent=  1.4995828845D-01 Coefficients=  1.0000000000D+00
 S 1 1.00
     Exponent=  5.4530286708D-02 Coefficients=  1.0000000000D+00
 P 5 1.00
     Exponent=  6.9498536057D+02 Coefficients=  2.0000000000D-03
     Exponent=  2.3166178686D+02 Coefficients=  8.9500000000D-03
     Exponent=  7.7220595619D+01 Coefficients=  5.1130000000D-02
     Exponent=  2.5740198540D+01 Coefficients=  2.1011000000D-01
     Exponent=  8.5800661799D+00 Coefficients=  4.9738000000D-01
 P 1 1.00
     Exponent=  2.8600220600D+00 Coefficients=  1.0000000000D+00
 P 1 1.00
     Exponent=  9.5334068665D-01 Coefficients=  1.0000000000D+00
 P 1 1.00
     Exponent=  3.1778022888D-01 Coefficients=  1.0000000000D+00
 P 1 1.00
     Exponent=  1.0592674296D-01 Coefficients=  1.0000000000D+00
 P 1 1.00
     Exponent=  3.5308914320D-02 Coefficients=  1.0000000000D+00
 D 1 1.00
     Exponent=  5.5696000000D-01 Coefficients=  1.0000000000D+00
 D 1 1.00
     Exponent=  1.5619100000D-01 Coefficients=  1.0000000000D+00
 ****
 Centers:      41
 S 8 1.00
     Exponent=  7.5448214551D+05 Coefficients=  4.4300000000D-03
     Exponent=  3.3532539800D+05 Coefficients=  1.9800000000D-03
     Exponent=  1.4903351022D+05 Coefficients=  9.0500000000D-03
     Exponent=  6.6237115655D+04 Coefficients=  4.8700000000D-03
     Exponent=  2.9438718069D+04 Coefficients=  2.0770000000D-02
     Exponent=  1.3083874697D+04 Coefficients=  3.2900000000D-02
     Exponent=  5.8150554210D+03 Coefficients=  7.7010000000D-02
     Exponent=  2.5844690760D+03 Coefficients=  1.5160000000D-01
 S 1 1.00
     Exponent=  1.1486529227D+03 Coefficients=  1.0000000000D+00
 S 1 1.00
     Exponent=  5.1051241008D+02 Coefficients=  1.0000000000D+00
 S 1 1.00
     Exponent=  2.2689440448D+02 Coefficients=  1.0000000000D+00
 S 1 1.00
     Exponent=  1.0084195755D+02 Coefficients=  1.0000000000D+00
 S 1 1.00
     Exponent=  4.4818647798D+01 Coefficients=  1.0000000000D+00
 S 1 1.00
     Exponent=  1.9919399021D+01 Coefficients=  1.0000000000D+00
 S 1 1.00
     Exponent=  8.8530662317D+00 Coefficients=  1.0000000000D+00
 S 1 1.00
     Exponent=  3.9346961030D+00 Coefficients=  1.0000000000D+00
 S 1 1.00
     Exponent=  1.7487538235D+00 Coefficients=  1.0000000000D+00
 S 1 1.00
     Exponent=  7.7722392158D-01 Coefficients=  1.0000000000D+00
 S 1 1.00
     Exponent=  3.4543285403D-01 Coefficients=  1.0000000000D+00
 S 1 1.00
     Exponent=  1.5352571290D-01 Coefficients=  1.0000000000D+00
 S 1 1.00
     Exponent=  6.8233650180D-02 Coefficients=  1.0000000000D+00
 S 1 1.00
     Exponent=  1.3478251887D-02 Coefficients=  1.0000000000D+00
 P 5 1.00
     Exponent=  1.0090658304D+04 Coefficients=  2.7500000000D-03
     Exponent=  4.0362633217D+03 Coefficients=  4.1800000000D-03
     Exponent=  1.6145053287D+03 Coefficients=  2.0890000000D-02
     Exponent=  6.4580213147D+02 Coefficients=  7.1370000000D-02
     Exponent=  2.5832085259D+02 Coefficients=  2.2613000000D-01
 P 1 1.00
     Exponent=  1.0332834104D+02 Coefficients=  1.0000000000D+00
 P 1 1.00
     Exponent=  4.1331336414D+01 Coefficients=  1.0000000000D+00
 P 1 1.00
     Exponent=  1.6532534566D+01 Coefficients=  1.0000000000D+00
 P 1 1.00
     Exponent=  6.6130138263D+00 Coefficients=  1.0000000000D+00
 P 1 1.00
     Exponent=  2.6452055305D+00 Coefficients=  1.0000000000D+00
 P 1 1.00
     Exponent=  1.0580822122D+00 Coefficients=  1.0000000000D+00
 P 1 1.00
     Exponent=  4.2323288488D-01 Coefficients=  1.0000000000D+00
 P 1 1.00
     Exponent=  1.6929315395D-01 Coefficients=  1.0000000000D+00
 P 1 1.00
     Exponent=  6.7717261581D-02 Coefficients=  1.0000000000D+00
 P 1 1.00
     Exponent=  2.7086904632D-02 Coefficients=  1.0000000000D+00
 P 1 1.00
     Exponent=  1.0834761853D-02 Coefficients=  1.0000000000D+00
 D 4 1.00
     Exponent=  5.5430250651D+02 Coefficients=  4.3700000000D-03
     Exponent=  2.0156454782D+02 Coefficients=  2.5110000000D-02
     Exponent=  7.3296199207D+01 Coefficients=  1.3316000000D-01
     Exponent=  2.6653163348D+01 Coefficients=  3.8900000000D-01
 D 1 1.00
     Exponent=  9.6920593993D+00 Coefficients=  1.0000000000D+00
 D 1 1.00
     Exponent=  3.5243852361D+00 Coefficients=  1.0000000000D+00
 D 1 1.00
     Exponent=  1.2815946313D+00 Coefficients=  1.0000000000D+00
 D 1 1.00
     Exponent=  4.6603441139D-01 Coefficients=  1.0000000000D+00
 D 1 1.00
     Exponent=  1.6946705869D-01 Coefficients=  1.0000000000D+00
 F 1 1.00
     Exponent=  1.3140000000D+00 Coefficients=  1.0000000000D+00
 F 1 1.00
     Exponent=  1.9993000000D-01 Coefficients=  1.0000000000D+00
 ****
 Centers:       1
 S 9 1.00
     Exponent=  2.1644816090D+06 Coefficients=  1.2320000000D-02
     Exponent=  1.0822408045D+06 Coefficients=  1.2970000000D-02
     Exponent=  5.4112040224D+05 Coefficients=  2.6370000000D-02
     Exponent=  2.7056020112D+05 Coefficients=  9.0400000000D-03
     Exponent=  1.3528010056D+05 Coefficients=  3.4980000000D-02
     Exponent=  6.7640050280D+04 Coefficients=  1.2220000000D-02
     Exponent=  3.3820025140D+04 Coefficients=  6.0520000000D-02
     Exponent=  1.6910012570D+04 Coefficients=  6.4930000000D-02
     Exponent=  8.4550062850D+03 Coefficients=  1.3819000000D-01
 S 1 1.00
     Exponent=  4.2275031425D+03 Coefficients=  1.0000000000D+00
 S 1 1.00
     Exponent=  2.1137515713D+03 Coefficients=  1.0000000000D+00
 S 1 1.00
     Exponent=  1.0568757856D+03 Coefficients=  1.0000000000D+00
 S 1 1.00
     Exponent=  5.2843789281D+02 Coefficients=  1.0000000000D+00
 S 1 1.00
     Exponent=  2.6421894641D+02 Coefficients=  1.0000000000D+00
 S 1 1.00
     Exponent=  1.3210947320D+02 Coefficients=  1.0000000000D+00
 S 1 1.00
     Exponent=  6.6054736602D+01 Coefficients=  1.0000000000D+00
 S 1 1.00
     Exponent=  3.3027368301D+01 Coefficients=  1.0000000000D+00
 S 1 1.00
     Exponent=  1.6513684150D+01 Coefficients=  1.0000000000D+00
 S 1 1.00
     Exponent=  8.2568420752D+00 Coefficients=  1.0000000000D+00
 S 1 1.00
     Exponent=  4.1284210376D+00 Coefficients=  1.0000000000D+00
 S 1 1.00
     Exponent=  2.0642105188D+00 Coefficients=  1.0000000000D+00
 S 1 1.00
     Exponent=  1.0321052594D+00 Coefficients=  1.0000000000D+00
 S 1 1.00
     Exponent=  5.1605262970D-01 Coefficients=  1.0000000000D+00
 S 1 1.00
     Exponent=  2.5802631485D-01 Coefficients=  1.0000000000D+00
 S 1 1.00
     Exponent=  1.2901315743D-01 Coefficients=  1.0000000000D+00
 S 1 1.00
     Exponent=  6.4506578713D-02 Coefficients=  1.0000000000D+00
 P 7 1.00
     Exponent=  3.2357915258D+04 Coefficients=  5.0200000000D-03
     Exponent=  1.4381295670D+04 Coefficients=  2.0200000000D-03
     Exponent=  6.3916869645D+03 Coefficients=  1.8070000000D-02
     Exponent=  2.8407497620D+03 Coefficients=  3.6620000000D-02
     Exponent=  1.2625554498D+03 Coefficients=  1.1172000000D-01
     Exponent=  5.6113575545D+02 Coefficients=  2.5586000000D-01
     Exponent=  2.4939366909D+02 Coefficients=  4.2608000000D-01
 P 1 1.00
     Exponent=  1.1084163071D+02 Coefficients=  1.0000000000D+00
 P 1 1.00
     Exponent=  4.9262946981D+01 Coefficients=  1.0000000000D+00
 P 1 1.00
     Exponent=  2.1894643103D+01 Coefficients=  1.0000000000D+00
 P 1 1.00
     Exponent=  9.7309524900D+00 Coefficients=  1.0000000000D+00
 P 1 1.00
     Exponent=  4.3248677733D+00 Coefficients=  1.0000000000D+00
 P 1 1.00
     Exponent=  1.9221634548D+00 Coefficients=  1.0000000000D+00
 P 1 1.00
     Exponent=  8.5429486881D-01 Coefficients=  1.0000000000D+00
 P 1 1.00
     Exponent=  3.7968660836D-01 Coefficients=  1.0000000000D+00
 P 1 1.00
     Exponent=  1.6874960372D-01 Coefficients=  1.0000000000D+00
 P 1 1.00
     Exponent=  7.4999823874D-02 Coefficients=  1.0000000000D+00
 P 1 1.00
     Exponent=  3.3333255055D-02 Coefficients=  1.0000000000D+00
 D 5 1.00
     Exponent=  1.9119003508D+03 Coefficients=  4.3300000000D-03
     Exponent=  7.6476014031D+02 Coefficients=  1.7780000000D-02
     Exponent=  3.0590405613D+02 Coefficients=  8.9710000000D-02
     Exponent=  1.2236162245D+02 Coefficients=  3.1123000000D-01
     Exponent=  4.8944648980D+01 Coefficients=  5.3206000000D-01
 D 1 1.00
     Exponent=  1.9577859592D+01 Coefficients=  1.0000000000D+00
 D 1 1.00
     Exponent=  7.8311438368D+00 Coefficients=  1.0000000000D+00
 D 1 1.00
     Exponent=  3.1324575347D+00 Coefficients=  1.0000000000D+00
 D 1 1.00
     Exponent=  1.2529830139D+00 Coefficients=  1.0000000000D+00
 D 1 1.00
     Exponent=  5.0119320556D-01 Coefficients=  1.0000000000D+00
 D 1 1.00
     Exponent=  2.0047728222D-01 Coefficients=  1.0000000000D+00
 D 1 1.00
     Exponent=  8.0190912889D-02 Coefficients=  1.0000000000D+00
 D 1 1.00
     Exponent=  3.2076365156D-02 Coefficients=  1.0000000000D+00
 F 4 1.00
     Exponent=  8.2289680979D+01 Coefficients=  6.1870000000D-02
     Exponent=  2.9923520356D+01 Coefficients=  2.4823000000D-01
     Exponent=  1.0881280130D+01 Coefficients=  4.9956000000D-01
     Exponent=  3.9568291380D+00 Coefficients=  4.0380000000D-01
 F 1 1.00
     Exponent=  1.4388469593D+00 Coefficients=  1.0000000000D+00
 F 1 1.00
     Exponent=  5.2321707610D-01 Coefficients=  1.0000000000D+00
 G 1 1.00
     Exponent=  2.6700000000D+00 Coefficients=  1.0000000000D+00
 G 1 1.00
     Exponent=  9.0960000000D-01 Coefficients=  1.0000000000D+00
 ****
 Ernie: Thresh=  0.10000D-02 Tol=  0.10000D-05 Strict=F.
 There are  1271 symmetry adapted cartesian basis functions of A   symmetry.
 There are  1183 symmetry adapted basis functions of A   symmetry.
  1183 basis functions,  1870 primitive gaussians,  1271 cartesian basis functions
   176 alpha electrons      176 beta electrons
       nuclear repulsion energy      7590.3576024705 Hartrees.
 IExCor= 1009 DFT=T Ex=PBE Corr=PBE ExCW=0 ScaHFX=  0.000000
 ScaDFX=  1.000000  1.000000  1.000000  1.000000 ScalE2=  1.000000  1.000000
 IRadAn=      0 IRanWt=     -1 IRanGd=            0 ICorTp=0 IEmpDi=  4
 NAtoms=   60 NActive=   60 NUniq=   60 SFac= 1.00D+00 NAtFMM=   60 NAOKFM=T Big=T
 Integral buffers will be    131072 words long.
 Raffenetti 2 integral format.
 Two-electron integral symmetry is turned on.
 ------------------------------------------------------------------------------
 Polarizable Continuum Model (PCM)
 =================================
 Model                : PCM (using non-symmetric T matrix).
 Atomic radii         : UFF (Universal Force Field).
 Polarization charges : Total charges.
 Charge compensation  : None.
 Solution method      : On-the-fly selection.
 Cavity type          : Scaled VdW (van der Waals Surface) (Alpha=1.100).
 Cavity algorithm     : GePol (No added spheres)
                        Default sphere list used, NSphG=   60.
                        Lebedev-Laikov grids with approx.  5.0 points / Ang**2.
                        Smoothing algorithm: Karplus/York (Gamma=1.0000).
                        Polarization charges: spherical gaussians, with
                                              point-specific exponents (IZeta= 3).
                        Self-potential: point-specific (ISelfS= 7).
                        Self-field    : sphere-specific E.n sum rule (ISelfD= 2).
 Solvent              : Dichloromethane, Eps=   8.930000 Eps(inf)=   2.028346
 ------------------------------------------------------------------------------
 GePol: Number of generator spheres                  =      60
 GePol: Total number of spheres                      =      60
 GePol: Number of exposed spheres                    =      60 (100.00%)
 GePol: Number of points                             =    4154
 GePol: Average weight of points                     =       0.13
 GePol: Minimum weight of points                     =   0.19D-09
 GePol: Maximum weight of points                     =    0.21838
 GePol: Number of points with low weight             =     252
 GePol: Fraction of low-weight points (<1% of avg)   =       6.07%
 GePol: Cavity surface area                          =    559.682 Ang**2
 GePol: Cavity volume                                =    667.857 Ang**3
 Leave Link  301 at Sun Aug 25 05:55:03 2019, MaxMem=   939524096 cpu:         0.9
 (Enter /scr/programas/g09/l302.exe)
 NPDir=0 NMtPBC=     1 NCelOv=     1 NCel=       1 NClECP=     1 NCelD=      1
         NCelK=      1 NCelE2=     1 NClLst=     1 CellRange=     0.0.
 One-electron integrals computed using PRISM.
 NBasis=  1183 RedAO= T EigKep=  2.23D-06  NBF=  1183
 NBsUse=  1183 1.00D-06 EigRej= -1.00D+00 NBFU=  1183
 Precomputing XC quadrature grid using
 IXCGrd= 4 IRadAn=           0 IRanWt=          -1 IRanGd=           0 AccXCQ= 0.00D+00.
 Defaulting to unpruned grid for atomic number  78.
 Defaulting to unpruned grid for atomic number  50.
 Generated NRdTot=       0 NPtTot=           0 NUsed=           0 NTot=          32
 NSgBfM=  1120  1121  1121  1121  1121 MxSgAt=    60 MxSgA2=    60.
 Leave Link  302 at Sun Aug 25 05:55:11 2019, MaxMem=   939524096 cpu:        29.9
 (Enter /scr/programas/g09/l308.exe)
 Leave Link  308 at Sun Aug 25 05:55:12 2019, MaxMem=   939524096 cpu:         2.7
 (Enter /scr/programas/g09/l303.exe)
 DipDrv:  MaxL=1.
 Leave Link  303 at Sun Aug 25 05:55:12 2019, MaxMem=   939524096 cpu:         1.7
 (Enter /scr/programas/g09/l401.exe)
 ExpMin= 1.08D-02 ExpMax= 2.16D+06 ExpMxC= 2.16D+06 IAcc=4 IRadAn=    199590 AccDes= 0.00D+00
 Harris functional with IExCor= 1009 and IRadAn=  199590 diagonalized for initial guess.
 HarFok:  IExCor= 1009 AccDes= 0.00D+00 IRadAn=    199590 IDoV= 1 UseB2=F ITyADJ=14
 ICtDFT=  3500011 ScaDFX=  1.000000  1.000000  1.000000  1.000000
 FoFCou: FMM=F IPFlag=           0 FMFlag=      100000 FMFlg1=        2001
         NFxFlg=           0 DoJE=T BraDBF=F KetDBF=T FulRan=T
         wScrn=  0.000000 ICntrl=     500 IOpCl=  0 I1Cent=   200000004 NGrid=           0
         NMat0=    1 NMatS0=      1 NMatT0=    0 NMatD0=    1 NMtDS0=    0 NMtDT0=    0
 Petite list used in FoFCou.
 Harris En= -25874.3039018538    
 JPrj=0 DoOrth=F DoCkMO=F.
 Leave Link  401 at Sun Aug 25 06:00:43 2019, MaxMem=   939524096 cpu:      1316.4
 (Enter /scr/programas/g09/l502.exe)
 Closed shell SCF:
 Using DIIS extrapolation, IDIIS=  1040.
 Integral symmetry usage will be decided dynamically.
 IVT=     5117441 IEndB=     5117441 NGot=   939524096 MDV=   936274368
 LenX=   936274368 LenY=   934657656
 Requested convergence on RMS density matrix=1.00D-04 within 500 cycles.
 Requested convergence on MAX density matrix=1.00D-02.
 Requested convergence on             energy=1.00D-02.
 No special actions if energy rises.
 Fock matrices will be formed incrementally for  20 cycles.

 Cycle   1  Pass 1  IDiag  1:
 FoFJK:  IHMeth= 1 ICntrl=     500 DoSepK=F KAlg= 0 I1Cent=   0 FoldK=F
 IRaf= 740000000 NMat=   1 IRICut=       1 DoRegI=T DoRafI=F ISym2E= 0.
 FoFCou: FMM=T IPFlag=           0 FMFlag=      100000 FMFlg1=        2001
         NFxFlg=           0 DoJE=T BraDBF=F KetDBF=F FulRan=T
         wScrn=  0.000000 ICntrl=     500 IOpCl=  0 I1Cent=           0 NGrid=           0
         NMat0=    1 NMatS0=      1 NMatT0=    0 NMatD0=    1 NMtDS0=    0 NMtDT0=    0
 Symmetry not used in FoFCou.
 FMM levels:  10  Number of levels for PrismC:   9
 Defaulting to unpruned grid for atomic number  78.
 Defaulting to unpruned grid for atomic number  78.
 Defaulting to unpruned grid for atomic number  78.
 Defaulting to unpruned grid for atomic number  78.
 Inv3:  Mode=1 IEnd=    51767148.
 Iteration    1 A*A^-1 deviation from unit magnitude is 8.44D-15 for   3455.
 Iteration    1 A*A^-1 deviation from orthogonality  is 7.58D-15 for   3332    232.
 Iteration    1 A^-1*A deviation from unit magnitude is 8.66D-15 for   3841.
 Iteration    1 A^-1*A deviation from orthogonality  is 4.75D-12 for   3158   3138.
 E= -25854.8156069314    
 DIIS: error= 2.08D-01 at cycle   1 NSaved=   1.
 NSaved= 1 IEnMin= 1 EnMin= -25854.8156069314     IErMin= 1 ErrMin= 2.08D-01
 ErrMax= 2.08D-01  0.00D+00 EMaxC= 1.00D-01 BMatC= 3.34D+02 BMatP= 3.34D+02
 IDIUse=3 WtCom= 0.00D+00 WtEn= 1.00D+00
 Coeff-Com:  0.100D+01
 Coeff-En:   0.100D+01
 Coeff:      0.100D+01
 Gap=     0.835 Goal=   None    Shift=    0.000
 GapD=    0.835 DampG=2.000 DampE=0.125 DampFc=0.2500 IDamp=-1.
 Damping current iteration by 2.50D-01
 RMSDP=1.01D-02 MaxDP=1.31D+00              OVMax= 8.20D-01

 Cycle   2  Pass 1  IDiag  1:
 RMSU=  2.51D-03    CP:  1.02D+00
 E= -25856.5074381444     Delta-E=       -1.691831213036 Rises=F Damp=T
 DIIS: error= 1.48D-01 at cycle   2 NSaved=   2.
 NSaved= 2 IEnMin= 2 EnMin= -25856.5074381444     IErMin= 2 ErrMin= 1.48D-01
 ErrMax= 1.48D-01  0.00D+00 EMaxC= 1.00D-01 BMatC= 1.61D+02 BMatP= 3.34D+02
 IDIUse=3 WtCom= 0.00D+00 WtEn= 1.00D+00
 Coeff-Com: -0.201D+01 0.301D+01
 Coeff-En:   0.000D+00 0.100D+01
 Coeff:      0.000D+00 0.100D+01
 Gap=     0.313 Goal=   None    Shift=    0.000
 RMSDP=2.61D-03 MaxDP=2.27D-01 DE=-1.69D+00 OVMax= 6.85D-01

 Cycle   3  Pass 1  IDiag  1:
 RMSU=  2.45D-03    CP:  9.95D-01  6.64D-01
 E= -25858.5735016001     Delta-E=       -2.066063455721 Rises=F Damp=F
 DIIS: error= 4.40D-02 at cycle   3 NSaved=   3.
 NSaved= 3 IEnMin= 3 EnMin= -25858.5735016001     IErMin= 3 ErrMin= 4.40D-02
 ErrMax= 4.40D-02  0.00D+00 EMaxC= 1.00D-01 BMatC= 9.74D+00 BMatP= 1.61D+02
 IDIUse=3 WtCom= 5.60D-01 WtEn= 4.40D-01
 EnCoef did   100 forward-backward iterations
 Coeff-Com:  0.939D+00-0.115D+01 0.121D+01
 Coeff-En:   0.201D+00 0.304D-02 0.796D+00
 Coeff:      0.614D+00-0.641D+00 0.103D+01
 Gap=     0.565 Goal=   None    Shift=    0.000
 RMSDP=1.05D-02 MaxDP=1.01D+00 DE=-2.07D+00 OVMax= 9.25D-01

 Cycle   4  Pass 1  IDiag  1:
 RMSU=  8.87D-03    CP:  1.08D+00  2.27D+00 -5.17D-01
 E= -25836.8939127365     Delta-E=       21.679588863670 Rises=F Damp=F
 DIIS: error= 1.16D-01 at cycle   4 NSaved=   4.
 NSaved= 4 IEnMin= 3 EnMin= -25858.5735016001     IErMin= 3 ErrMin= 4.40D-02
 ErrMax= 1.16D-01  0.00D+00 EMaxC= 1.00D-01 BMatC= 1.48D+01 BMatP= 9.74D+00
 IDIUse=2 WtCom= 0.00D+00 WtEn= 1.00D+00
 EnCoef did     4 forward-backward iterations
 Coeff-En:   0.186D+00 0.000D+00 0.785D+00 0.291D-01
 Coeff:      0.186D+00 0.000D+00 0.785D+00 0.291D-01
 Gap=     0.063 Goal=   None    Shift=    0.000
 RMSDP=9.00D-03 MaxDP=9.50D-01 DE= 2.17D+01 OVMax= 9.87D-01

 Cycle   5  Pass 1  IDiag  1:
 RMSU=  3.32D-03    CP:  1.02D+00  7.67D-01  1.13D-01  1.82D-01
 E= -25851.6894850266     Delta-E=      -14.795572290175 Rises=F Damp=F
 DIIS: error= 5.68D-02 at cycle   5 NSaved=   5.
 NSaved= 5 IEnMin= 3 EnMin= -25858.5735016001     IErMin= 3 ErrMin= 4.40D-02
 ErrMax= 5.68D-02  0.00D+00 EMaxC= 1.00D-01 BMatC= 1.03D+01 BMatP= 9.74D+00
 IDIUse=3 WtCom= 4.32D-01 WtEn= 5.68D-01
 EnCoef did   100 forward-backward iterations
 Coeff-Com:  0.424D+00-0.505D+00 0.732D+00 0.153D+00 0.196D+00
 Coeff-En:   0.000D+00 0.000D+00 0.776D+00 0.302D-02 0.221D+00
 Coeff:      0.183D+00-0.218D+00 0.757D+00 0.678D-01 0.210D+00
 Gap=    -0.114 Goal=   None    Shift=    0.000
 RMSDP=3.86D-03 MaxDP=6.86D-01 DE=-1.48D+01 OVMax= 6.26D-01

 Cycle   6  Pass 1  IDiag  1:
 RMSU=  1.43D-03    CP:  1.00D+00  6.53D-01  4.84D-01  2.72D-02  4.71D-02
 E= -25859.5996667124     Delta-E=       -7.910181685751 Rises=F Damp=F
 DIIS: error= 1.01D-02 at cycle   6 NSaved=   6.
 NSaved= 6 IEnMin= 6 EnMin= -25859.5996667124     IErMin= 6 ErrMin= 1.01D-02
 ErrMax= 1.01D-02  0.00D+00 EMaxC= 1.00D-01 BMatC= 8.99D-01 BMatP= 9.74D+00
 IDIUse=3 WtCom= 8.99D-01 WtEn= 1.01D-01
 EnCoef did     6 forward-backward iterations
 Coeff-Com:  0.958D-01-0.111D+00 0.310D+00 0.467D-01 0.107D+00 0.551D+00
 Coeff-En:   0.000D+00 0.000D+00 0.953D-01 0.000D+00 0.953D-01 0.809D+00
 Coeff:      0.862D-01-0.100D+00 0.289D+00 0.420D-01 0.106D+00 0.577D+00
 Gap=     0.242 Goal=   None    Shift=    0.000
 RMSDP=1.91D-03 MaxDP=2.42D-01 DE=-7.91D+00 OVMax= 3.08D-01

 Cycle   7  Pass 1  IDiag  1:
 RMSU=  1.08D-03    CP:  9.97D-01  4.62D-01  5.95D-01  4.36D-02  1.50D-01
                    CP:  2.52D-03
 E= -25859.7520984556     Delta-E=       -0.152431743205 Rises=F Damp=F
 DIIS: error= 1.09D-02 at cycle   7 NSaved=   7.
 NSaved= 7 IEnMin= 7 EnMin= -25859.7520984556     IErMin= 6 ErrMin= 1.01D-02
 ErrMax= 1.09D-02  0.00D+00 EMaxC= 1.00D-01 BMatC= 3.33D-01 BMatP= 8.99D-01
 IDIUse=3 WtCom= 8.99D-01 WtEn= 1.01D-01
 Coeff-Com: -0.373D-01 0.534D-01 0.821D-01 0.873D-02 0.244D-01 0.383D+00
 Coeff-Com:  0.486D+00
 Coeff-En:   0.000D+00 0.000D+00 0.000D+00 0.000D+00 0.000D+00 0.430D+00
 Coeff-En:   0.570D+00
 Coeff:     -0.335D-01 0.480D-01 0.738D-01 0.785D-02 0.219D-01 0.387D+00
 Coeff:      0.494D+00
 Gap=     0.139 Goal=   None    Shift=    0.000
 RMSDP=1.36D-03 MaxDP=1.21D-01 DE=-1.52D-01 OVMax= 2.78D-01

 Cycle   8  Pass 1  IDiag  1:
 RMSU=  8.25D-04    CP:  1.01D+00  5.48D-01  5.53D-01  5.72D-02  2.19D-01
                    CP:  4.90D-01  3.18D-01
 E= -25859.9696479824     Delta-E=       -0.217549526824 Rises=F Damp=F
 DIIS: error= 6.99D-03 at cycle   8 NSaved=   8.
 NSaved= 8 IEnMin= 8 EnMin= -25859.9696479824     IErMin= 8 ErrMin= 6.99D-03
 ErrMax= 6.99D-03  0.00D+00 EMaxC= 1.00D-01 BMatC= 1.36D-01 BMatP= 3.33D-01
 IDIUse=3 WtCom= 9.30D-01 WtEn= 6.99D-02
 EnCoef did     7 forward-backward iterations
 Coeff-Com: -0.613D-01 0.831D-01 0.139D-01 0.339D-02-0.341D-02 0.222D+00
 Coeff-Com:  0.381D+00 0.362D+00
 Coeff-En:   0.000D+00 0.000D+00 0.000D+00 0.000D+00 0.000D+00 0.750D-01
 Coeff-En:   0.305D+00 0.620D+00
 Coeff:     -0.570D-01 0.773D-01 0.129D-01 0.315D-02-0.318D-02 0.212D+00
 Coeff:      0.375D+00 0.380D+00
 Gap=     0.122 Goal=   None    Shift=    0.000
 RMSDP=7.08D-04 MaxDP=9.66D-02 DE=-2.18D-01 OVMax= 1.21D-01

 Cycle   9  Pass 1  IDiag  1:
 RMSU=  2.44D-04    CP:  1.00D+00  5.22D-01  5.65D-01  5.02D-02  1.66D-01
                    CP:  3.86D-01  6.18D-01  3.79D-01
 E= -25860.0933007376     Delta-E=       -0.123652755174 Rises=F Damp=F
 DIIS: error= 1.31D-03 at cycle   9 NSaved=   9.
 NSaved= 9 IEnMin= 9 EnMin= -25860.0933007376     IErMin= 9 ErrMin= 1.31D-03
 ErrMax= 1.31D-03  0.00D+00 EMaxC= 1.00D-01 BMatC= 5.82D-03 BMatP= 1.36D-01
 IDIUse=3 WtCom= 9.87D-01 WtEn= 1.31D-02
 Coeff-Com: -0.279D-01 0.374D-01-0.431D-02 0.317D-03-0.125D-02 0.689D-01
 Coeff-Com:  0.115D+00 0.201D+00 0.611D+00
 Coeff-En:   0.000D+00 0.000D+00 0.000D+00 0.000D+00 0.000D+00 0.000D+00
 Coeff-En:   0.000D+00 0.226D-01 0.977D+00
 Coeff:     -0.275D-01 0.369D-01-0.426D-02 0.312D-03-0.124D-02 0.680D-01
 Coeff:      0.114D+00 0.198D+00 0.616D+00
 Gap=     0.120 Goal=   None    Shift=    0.000
 RMSDP=1.60D-04 MaxDP=2.00D-02 DE=-1.24D-01 OVMax= 2.56D-02

 Cycle  10  Pass 1  IDiag  1:
 RMSU=  9.14D-05    CP:  1.00D+00  5.41D-01  5.78D-01  4.99D-02  1.69D-01
                    CP:  4.21D-01  5.66D-01  4.63D-01  7.57D-01
 E= -25860.0971993591     Delta-E=       -0.003898621544 Rises=F Damp=F
 DIIS: error= 5.78D-04 at cycle  10 NSaved=  10.
 NSaved=10 IEnMin=10 EnMin= -25860.0971993591     IErMin=10 ErrMin= 5.78D-04
 ErrMax= 5.78D-04  0.00D+00 EMaxC= 1.00D-01 BMatC= 1.31D-03 BMatP= 5.82D-03
 IDIUse=3 WtCom= 9.94D-01 WtEn= 5.78D-03
 Coeff-Com: -0.678D-02 0.880D-02-0.564D-02 0.749D-03 0.119D-02 0.356D-02
 Coeff-Com:  0.920D-02 0.598D-01 0.373D+00 0.556D+00
 Coeff-En:   0.000D+00 0.000D+00 0.000D+00 0.000D+00 0.000D+00 0.000D+00
 Coeff-En:   0.000D+00 0.000D+00 0.216D+00 0.784D+00
 Coeff:     -0.674D-02 0.875D-02-0.561D-02 0.745D-03 0.118D-02 0.354D-02
 Coeff:      0.914D-02 0.595D-01 0.372D+00 0.557D+00
 Gap=     0.119 Goal=   None    Shift=    0.000
 RMSDP=5.44D-05 MaxDP=1.38D-02 DE=-3.90D-03 OVMax= 6.66D-03

 Cycle  11  Pass 1  IDiag  1:
 RMSU=  2.69D-05    CP:  1.00D+00  5.38D-01  5.70D-01  5.08D-02  1.72D-01
                    CP:  4.26D-01  5.77D-01  4.50D-01  8.35D-01  6.74D-01
 E= -25860.0984261938     Delta-E=       -0.001226834705 Rises=F Damp=F
 DIIS: error= 1.30D-04 at cycle  11 NSaved=  11.
 NSaved=11 IEnMin=11 EnMin= -25860.0984261938     IErMin=11 ErrMin= 1.30D-04
 ErrMax= 1.30D-04  0.00D+00 EMaxC= 1.00D-01 BMatC= 1.26D-04 BMatP= 1.31D-03
 IDIUse=3 WtCom= 9.99D-01 WtEn= 1.30D-03
 Coeff-Com: -0.273D-02 0.346D-02-0.409D-02 0.335D-03 0.914D-03-0.413D-02
 Coeff-Com:  0.289D-02 0.245D-01 0.144D+00 0.246D+00 0.588D+00
 Coeff-En:   0.000D+00 0.000D+00 0.000D+00 0.000D+00 0.000D+00 0.000D+00
 Coeff-En:   0.000D+00 0.000D+00 0.000D+00 0.000D+00 0.100D+01
 Coeff:     -0.272D-02 0.345D-02-0.409D-02 0.335D-03 0.913D-03-0.413D-02
 Coeff:      0.288D-02 0.245D-01 0.144D+00 0.246D+00 0.589D+00
 Gap=     0.119 Goal=   None    Shift=    0.000
 RMSDP=2.06D-05 MaxDP=3.22D-03 DE=-1.23D-03 OVMax= 2.48D-03

 Error on total polarization charges =  0.02384
 SCF Done:  E(RPBE-PBE) =  -25860.0984262     A.U. after   11 cycles
            NFock= 11  Conv=0.21D-04     -V/T= 2.0158
 KE= 2.545705319641D+04 PE=-7.637333755225D+04 EE= 1.746582832718D+04
 Leave Link  502 at Sun Aug 25 07:26:17 2019, MaxMem=   939524096 cpu:     20403.2
 (Enter /scr/programas/g09/l801.exe)
 Range of M.O.s used for correlation:     1  1183
 NBasis=  1183 NAE=   176 NBE=   176 NFC=     0 NFV=     0
 NROrb=   1183 NOA=   176 NOB=   176 NVA=  1007 NVB=  1007

 **** Warning!!: The largest alpha MO coefficient is  0.57353643D+02

 Leave Link  801 at Sun Aug 25 07:26:17 2019, MaxMem=   939524096 cpu:         0.2
 (Enter /scr/programas/g09/l1002.exe)
 Minotr:  Closed shell wavefunction.
 NEqPCM:  Using equilibrium solvation (IEInf=0, Eps=   8.9300, EpsInf=   2.0283)
          Direct CPHF calculation.
          Differentiating once with respect to magnetic field using GIAOs.
          Electric field/nuclear overlap derivatives assumed to be zero.
          Requested convergence is 1.0D-08 RMS, and 1.0D-07 maximum.
          Secondary convergence is 1.0D-12 RMS, and 1.0D-12 maximum.
          NewPWx=T KeepS1=F KeepF1=F KeepIn=T MapXYZ=F SortEE=F KeepMc=T.
          MDV=     939522429 using IRadAn=       2.
 Defaulting to unpruned grid for atomic number  78.
 Defaulting to unpruned grid for atomic number  50.
 Generate precomputed XC quadrature information.
          Solving linear equations simultaneously, MaxMat=      72.
 FoFJK:  IHMeth= 1 ICntrl=    6127 DoSepK=F KAlg= 0 I1Cent=   0 FoldK=F
 IRaf=         1 NMat=   1 IRICut=       1 DoRegI=T DoRafI=F ISym2E= 0.
 Defaulting to unpruned grid for atomic number  78.
 Defaulting to unpruned grid for atomic number  78.
 Defaulting to unpruned grid for atomic number  78.
 Defaulting to unpruned grid for atomic number  78.
          There are     3 degrees of freedom in the 1st order CPHF.  IDoFFX=0 NUNeed=     3.
      3 vectors produced by pass  0 Test12= 5.91D-12 3.33D-08 XBig12= 2.15D+02 3.46D+00.
 AX will form     3 AO Fock derivatives at one time.
 InvSVY:  IOpt=1 It=  1 EMax= 0.00D+00
 Solved reduced A of dimension     3 with     3 vectors.
 Calculating GIAO nuclear magnetic shielding tensors.
 SCF GIAO Magnetic shielding tensor (ppm):
      1  Pt   Isotropic =  3012.7522   Anisotropy =  1102.3782
   XX=  3744.2461   YX=    11.7344   ZX=  -127.7965
   XY=     3.1362   YY=  3533.5627   ZY=   -94.4193
   XZ=   -23.0030   YZ=   -87.3054   ZZ=  1760.4478
   Eigenvalues:  1752.9847  3537.6009  3747.6710
      2  P    Isotropic =   293.5791   Anisotropy =    29.1366
   XX=   302.7535   YX=    -7.6247   ZX=     6.3255
   XY=    10.7058   YY=   301.0976   ZY=    15.2976
   XZ=    14.9279   YZ=    15.7440   ZZ=   276.8861
   Eigenvalues:   267.0475   300.6863   313.0035
      3  P    Isotropic =   273.0923   Anisotropy =    54.1385
   XX=   237.7205   YX=    13.5627   ZX=   -14.0834
   XY=    -6.5682   YY=   308.7589   ZY=    -4.6113
   XZ=    -2.8963   YZ=    -0.5602   ZZ=   272.7975
   Eigenvalues:   235.6637   274.4286   309.1846
      4  C    Isotropic =   157.3204   Anisotropy =    33.6182
   XX=   143.8673   YX=     6.7312   ZX=     3.9627
   XY=     1.6614   YY=   170.0940   ZY=    14.2063
   XZ=     2.3269   YZ=    13.0776   ZZ=   157.9999
   Eigenvalues:   143.0843   149.1443   179.7325
      5  H    Isotropic =    28.7998   Anisotropy =     7.5446
   XX=    26.6421   YX=    -3.0861   ZX=     3.2950
   XY=    -3.8798   YY=    32.1291   ZY=     1.5992
   XZ=     3.6878   YZ=     2.2621   ZZ=    27.6283
   Eigenvalues:    22.0860    30.4839    33.8296
      6  H    Isotropic =    29.3195   Anisotropy =     5.6004
   XX=    28.6487   YX=     1.1535   ZX=    -3.3407
   XY=     3.2380   YY=    29.1032   ZY=     2.7188
   XZ=    -3.3828   YZ=     2.4232   ZZ=    30.2066
   Eigenvalues:    23.8582    31.0471    33.0531
      7  C    Isotropic =   172.3041   Anisotropy =    20.3091
   XX=   166.1488   YX=     3.7606   ZX=     0.8686
   XY=     4.9562   YY=   182.6560   ZY=     5.9771
   XZ=     1.2384   YZ=     6.0948   ZZ=   168.1074
   Eigenvalues:   164.9159   166.1528   185.8435
      8  H    Isotropic =    30.4904   Anisotropy =     8.7558
   XX=    28.4237   YX=    -1.7288   ZX=     2.2560
   XY=    -2.4115   YY=    35.7353   ZY=     0.9466
   XZ=     2.0329   YZ=     1.4776   ZZ=    27.3123
   Eigenvalues:    25.1763    29.9674    36.3276
      9  H    Isotropic =    30.1082   Anisotropy =    13.2358
   XX=    24.9648   YX=     1.0581   ZX=     1.2371
   XY=     1.3699   YY=    30.7221   ZY=     6.4264
   XZ=     0.8769   YZ=     5.0782   ZZ=    34.6378
   Eigenvalues:    24.7168    26.6758    38.9321
     10  H    Isotropic =    30.1310   Anisotropy =     7.7749
   XX=    31.5890   YX=     3.1648   ZX=    -1.2953
   XY=     4.5336   YY=    31.2473   ZY=     1.6550
   XZ=    -0.9780   YZ=     2.3238   ZZ=    27.5567
   Eigenvalues:    25.3221    29.7566    35.3142
     11  C    Isotropic =   147.9005   Anisotropy =    30.9370
   XX=   154.5086   YX=    -0.5877   ZX=   -10.6060
   XY=     2.7840   YY=   162.0639   ZY=   -11.8587
   XZ=   -13.0529   YZ=   -14.5906   ZZ=   127.1289
   Eigenvalues:   119.2889   155.8874   168.5252
     12  H    Isotropic =    28.7250   Anisotropy =     8.4672
   XX=    25.4133   YX=    -1.9797   ZX=    -4.5513
   XY=    -1.5154   YY=    34.0274   ZY=    -0.5037
   XZ=    -4.7247   YZ=    -1.4807   ZZ=    26.7344
   Eigenvalues:    21.0887    30.7166    34.3698
     13  C    Isotropic =   164.4890   Anisotropy =    21.6151
   XX=   168.2661   YX=   -10.5283   ZX=    -6.6795
   XY=    -9.8355   YY=   155.0554   ZY=    -0.6577
   XZ=    -8.9143   YZ=    -1.1913   ZZ=   170.1456
   Eigenvalues:   148.4972   166.0708   178.8991
     14  H    Isotropic =    29.1551   Anisotropy =     9.3696
   XX=    30.7527   YX=     0.6902   ZX=    -2.0759
   XY=     1.1403   YY=    31.4630   ZY=    -4.8367
   XZ=    -2.6789   YZ=    -5.8178   ZZ=    25.2498
   Eigenvalues:    21.8882    30.1757    35.4016
     15  H    Isotropic =    29.8632   Anisotropy =     5.9563
   XX=    28.6704   YX=    -1.4374   ZX=     2.4081
   XY=     1.7015   YY=    29.4296   ZY=    -1.2895
   XZ=     4.5487   YZ=     0.9587   ZZ=    31.4896
   Eigenvalues:    26.3138    29.4418    33.8341
     16  C    Isotropic =   174.8341   Anisotropy =    19.3958
   XX=   181.7999   YX=    -6.1224   ZX=    -8.7103
   XY=    -3.3444   YY=   174.2766   ZY=     2.7833
   XZ=    -7.5651   YZ=     2.2071   ZZ=   168.4257
   Eigenvalues:   164.5735   172.1641   187.7646
     17  H    Isotropic =    30.9327   Anisotropy =    12.5144
   XX=    33.6417   YX=    -5.7318   ZX=     2.3201
   XY=    -5.1784   YY=    32.8123   ZY=    -2.7736
   XZ=     1.1245   YZ=    -1.5473   ZZ=    26.3440
   Eigenvalues:    25.6876    27.8348    39.2756
     18  H    Isotropic =    32.4101   Anisotropy =    14.6051
   XX=    32.4668   YX=     2.8915   ZX=    -2.8779
   XY=     4.2857   YY=    40.5593   ZY=     0.0909
   XZ=    -3.3215   YZ=    -1.9673   ZZ=    24.2041
   Eigenvalues:    23.1668    31.9166    42.1468
     19  H    Isotropic =    31.1241   Anisotropy =     8.7688
   XX=    30.6208   YX=    -2.4315   ZX=    -0.2395
   XY=    -0.8370   YY=    32.2756   ZY=     5.5125
   XZ=     0.3264   YZ=     5.0460   ZZ=    30.4760
   Eigenvalues:    25.7697    30.6326    36.9700
     20  C    Isotropic =   156.7481   Anisotropy =    20.3721
   XX=   151.5581   YX=    -8.1687   ZX=    -0.5501
   XY=   -10.5053   YY=   153.6099   ZY=     4.8644
   XZ=     3.5430   YZ=    12.3716   ZZ=   165.0762
   Eigenvalues:   141.1019   158.8128   170.3295
     21  H    Isotropic =    29.4112   Anisotropy =     9.2959
   XX=    26.2409   YX=     0.3495   ZX=    -1.0391
   XY=     0.5697   YY=    35.2957   ZY=     1.4582
   XZ=    -1.0692   YZ=     1.8399   ZZ=    26.6969
   Eigenvalues:    25.1900    27.4351    35.6084
     22  H    Isotropic =    29.2062   Anisotropy =     9.4506
   XX=    34.3790   YX=     0.4933   ZX=     2.4187
   XY=    -0.8183   YY=    26.7773   ZY=     2.7649
   XZ=     3.7064   YZ=     3.1461   ZZ=    26.4622
   Eigenvalues:    23.1469    28.9651    35.5066
     23  C    Isotropic =   172.1169   Anisotropy =    19.8543
   XX=   158.7535   YX=     0.6289   ZX=     2.7515
   XY=    -0.1466   YY=   172.3340   ZY=    -0.7212
   XZ=    -0.2003   YZ=    -0.5255   ZZ=   185.2631
   Eigenvalues:   158.6869   172.3107   185.3531
     24  H    Isotropic =    30.5905   Anisotropy =     9.4667
   XX=    32.2336   YX=     1.7933   ZX=     3.2193
   XY=     0.9877   YY=    26.5897   ZY=     2.4927
   XZ=     3.9061   YZ=     2.3750   ZZ=    32.9482
   Eigenvalues:    25.7586    29.1114    36.9016
     25  H    Isotropic =    30.2824   Anisotropy =     5.8958
   XX=    25.1648   YX=     1.7919   ZX=     0.0838
   XY=     1.8998   YY=    32.8931   ZY=     1.8658
   XZ=    -0.2240   YZ=     0.4800   ZZ=    32.7893
   Eigenvalues:    24.7330    31.9012    34.2129
     26  H    Isotropic =    30.0852   Anisotropy =    13.0372
   XX=    27.0571   YX=    -1.6051   ZX=    -2.5118
   XY=    -2.0276   YY=    27.9425   ZY=     4.5281
   XZ=    -3.6599   YZ=     5.2069   ZZ=    35.2561
   Eigenvalues:    25.4114    26.0676    38.7767
     27  C    Isotropic =   165.2633   Anisotropy =    26.9059
   XX=   161.0415   YX=     6.0706   ZX=     0.8996
   XY=    10.7124   YY=   180.0217   ZY=     0.5029
   XZ=     1.5588   YZ=    -1.7752   ZZ=   154.7267
   Eigenvalues:   154.2087   158.3806   183.2006
     28  H    Isotropic =    30.4390   Anisotropy =     9.0541
   XX=    30.6223   YX=     0.6107   ZX=    -3.6478
   XY=    -2.2011   YY=    35.5151   ZY=     1.4794
   XZ=    -3.9829   YZ=     2.9624   ZZ=    25.1796
   Eigenvalues:    23.0020    31.8400    36.4750
     29  H    Isotropic =    30.3265   Anisotropy =     8.7351
   XX=    29.4515   YX=     0.9015   ZX=     4.2991
   XY=    -1.9999   YY=    35.4579   ZY=    -1.2100
   XZ=     4.4958   YZ=    -2.3834   ZZ=    26.0700
   Eigenvalues:    22.9382    31.8914    36.1499
     30  C    Isotropic =   177.6526   Anisotropy =    18.2349
   XX=   171.4888   YX=     3.6938   ZX=     0.1208
   XY=     3.7425   YY=   188.9943   ZY=     0.9086
   XZ=     0.6893   YZ=     0.9709   ZZ=   172.4747
   Eigenvalues:   170.7063   172.4423   189.8092
     31  H    Isotropic =    30.6102   Anisotropy =    12.8437
   XX=    35.6830   YX=     4.5193   ZX=     0.3271
   XY=     5.6411   YY=    31.7264   ZY=     0.4130
   XZ=     0.3690   YZ=     0.2959   ZZ=    24.4210
   Eigenvalues:    24.4025    28.2554    39.1726
     32  H    Isotropic =    30.7488   Anisotropy =    10.0151
   XX=    28.4637   YX=     2.7230   ZX=    -1.5938
   XY=     1.5420   YY=    33.8646   ZY=     5.4416
   XZ=    -1.6297   YZ=     4.7145   ZZ=    29.9181
   Eigenvalues:    24.7071    30.1138    37.4255
     33  H    Isotropic =    30.7124   Anisotropy =     9.8760
   XX=    28.0938   YX=     2.9941   ZX=     1.7701
   XY=     1.6206   YY=    34.4580   ZY=    -4.8862
   XZ=     1.7964   YZ=    -4.1678   ZZ=    29.5855
   Eigenvalues:    24.6702    30.1706    37.2965
     34  C    Isotropic =   158.2763   Anisotropy =    22.1989
   XX=   149.6898   YX=    -8.6716   ZX=    -4.0165
   XY=   -11.1545   YY=   154.2165   ZY=    -3.6685
   XZ=    -6.8590   YZ=    -8.1589   ZZ=   170.9228
   Eigenvalues:   139.7584   161.9950   173.0756
     35  H    Isotropic =    29.3795   Anisotropy =     9.9569
   XX=    25.1842   YX=     1.3405   ZX=     0.8696
   XY=     1.6647   YY=    35.0553   ZY=    -2.4284
   XZ=     0.8900   YZ=    -2.7410   ZZ=    27.8989
   Eigenvalues:    24.4265    27.6945    36.0174
     36  H    Isotropic =    28.7453   Anisotropy =    10.4604
   XX=    35.4279   YX=    -0.0232   ZX=    -0.9293
   XY=    -1.5595   YY=    25.0483   ZY=    -2.8950
   XZ=    -2.4207   YZ=    -2.9354   ZZ=    25.7597
   Eigenvalues:    22.2457    28.2712    35.7189
     37  C    Isotropic =   171.1003   Anisotropy =    18.7392
   XX=   157.8506   YX=     0.9020   ZX=    -6.6309
   XY=    -0.8819   YY=   173.5397   ZY=     2.7488
   XZ=    -3.0811   YZ=     2.8069   ZZ=   181.9106
   Eigenvalues:   156.8897   172.8181   183.5931
     38  H    Isotropic =    30.1185   Anisotropy =    13.3326
   XX=    25.5505   YX=    -0.6863   ZX=     0.4506
   XY=    -1.2034   YY=    27.4698   ZY=    -3.9181
   XZ=     1.4740   YZ=    -4.5227   ZZ=    37.3352
   Eigenvalues:    25.0753    26.2733    39.0069
     39  H    Isotropic =    30.2587   Anisotropy =     5.7738
   XX=    25.6666   YX=     2.2923   ZX=    -0.9766
   XY=     2.5976   YY=    32.3639   ZY=    -1.6672
   XZ=    -0.7545   YZ=    -0.1284   ZZ=    32.7457
   Eigenvalues:    24.8308    31.8375    34.1079
     40  H    Isotropic =    30.4517   Anisotropy =     8.7674
   XX=    33.1380   YX=     0.1670   ZX=    -3.4233
   XY=    -1.2355   YY=    26.3228   ZY=    -1.6061
   XZ=    -4.0079   YZ=    -0.7655   ZZ=    31.8944
   Eigenvalues:    25.7834    29.2751    36.2966
     41  Sn   Isotropic =  2156.1501   Anisotropy =   826.6269
   XX=  2702.9978   YX=   -46.4482   ZX=    20.1568
   XY=   -55.8742   YY=  1980.9287   ZY=    -8.5228
   XZ=    26.4468   YZ=   -16.0122   ZZ=  1784.5237
   Eigenvalues:  1783.3153  1977.9002  2707.2347
     42  Cl   Isotropic =   753.8665   Anisotropy =   322.3425
   XX=   746.0489   YX=    41.7252   ZX=  -172.1692
   XY=    24.3442   YY=   699.8774   ZY=   -18.5085
   XZ=  -189.5272   YZ=    -8.9833   ZZ=   815.6730
   Eigenvalues:   593.9843   698.8536   968.7615
     43  Cl   Isotropic =   751.5886   Anisotropy =   310.6941
   XX=   722.8487   YX=   123.7971   ZX=   123.5635
   XY=   101.5781   YY=   755.3918   ZY=    62.6932
   XZ=   152.7623   YZ=    51.3611   ZZ=   776.5252
   Eigenvalues:   588.0758   707.9720   958.7180
     44  Cl   Isotropic =   751.7334   Anisotropy =   295.5031
   XX=   702.1014   YX=  -145.2140   ZX=    40.8390
   XY=  -124.9303   YY=   851.7520   ZY=   -51.6438
   XZ=    39.4842   YZ=   -53.2533   ZZ=   701.3468
   Eigenvalues:   621.5487   684.9160   948.7355
     45  C    Isotropic =   170.7444   Anisotropy =    21.2761
   XX=   163.0067   YX=     7.1855   ZX=    -5.4818
   XY=     4.3657   YY=   180.9461   ZY=    -4.8806
   XZ=    -6.1587   YZ=    -4.2447   ZZ=   168.2803
   Eigenvalues:   158.9438   168.3608   184.9284
     46  H    Isotropic =    30.0043   Anisotropy =    12.0021
   XX=    31.9978   YX=     2.4866   ZX=    -4.3312
   XY=     3.8568   YY=    30.4370   ZY=    -3.9581
   XZ=    -5.2216   YZ=    -3.5018   ZZ=    27.5780
   Eigenvalues:    24.0560    27.9512    38.0057
     47  H    Isotropic =    30.1922   Anisotropy =     9.3573
   XX=    29.0458   YX=     0.3234   ZX=     1.3054
   XY=    -0.5728   YY=    29.8117   ZY=    -5.4437
   XZ=     1.7838   YZ=    -5.2809   ZZ=    31.7192
   Eigenvalues:    25.1073    29.0390    36.4304
     48  H    Isotropic =    30.3532   Anisotropy =     8.4204
   XX=    25.9358   YX=     1.6592   ZX=    -1.4360
   XY=     1.7067   YY=    35.4770   ZY=     1.9676
   XZ=    -1.8131   YZ=     0.8197   ZZ=    29.6468
   Eigenvalues:    24.9174    30.1754    35.9668
     49  H    Isotropic =    28.5208   Anisotropy =     9.2372
   XX=    30.2465   YX=    -1.5268   ZX=     2.2078
   XY=    -2.1622   YY=    31.2263   ZY=    -4.4117
   XZ=     1.9017   YZ=    -4.0517   ZZ=    24.0896
   Eigenvalues:    21.9695    28.9140    34.6789
     50  C    Isotropic =     4.0771   Anisotropy =   184.0852
   XX=   -42.5731   YX=    20.6776   ZX=    12.6983
   XY=    10.7709   YY=   125.3123   ZY=     1.1757
   XZ=    -1.1643   YZ=     2.4942   ZZ=   -70.5079
   Eigenvalues:   -71.6601   -42.9092   126.8006
     51  C    Isotropic =    45.3944   Anisotropy =   161.1857
   XX=    23.2452   YX=    14.1871   ZX=   -30.5673
   XY=     7.7765   YY=   151.8872   ZY=     3.0489
   XZ=   -50.8913   YZ=     8.7765   ZZ=   -38.9493
   Eigenvalues:   -59.5859    42.9174   152.8515
     52  C    Isotropic =    48.2066   Anisotropy =   158.3958
   XX=    28.9570   YX=    14.4956   ZX=    28.5975
   XY=    14.1534   YY=   152.0567   ZY=     0.6829
   XZ=    46.7171   YZ=    -0.7165   ZZ=   -36.3940
   Eigenvalues:   -53.7500    44.5659   153.8038
     53  C    Isotropic =    55.9679   Anisotropy =   171.7824
   XX=    19.0803   YX=    17.0914   ZX=    52.2460
   XY=    22.8150   YY=   167.6841   ZY=    -0.8955
   XZ=    36.3345   YZ=     0.3629   ZZ=   -18.8606
   Eigenvalues:   -48.6604    46.0747   170.4895
     54  H    Isotropic =    23.7161   Anisotropy =    13.4473
   XX=    28.4592   YX=    -1.6782   ZX=    -7.0465
   XY=    -1.1127   YY=    20.5910   ZY=     0.1699
   XZ=    -5.9799   YZ=     0.5107   ZZ=    22.0981
   Eigenvalues:    17.9496    20.5177    32.6810
     55  C    Isotropic =    51.4158   Anisotropy =   179.4902
   XX=    15.5156   YX=    21.2125   ZX=   -52.5288
   XY=    18.8339   YY=   168.4574   ZY=     6.9774
   XZ=   -35.5823   YZ=     9.9375   ZZ=   -29.7255
   Eigenvalues:   -58.0144    41.1859   171.0759
     56  H    Isotropic =    23.6692   Anisotropy =    13.6534
   XX=    27.9668   YX=    -1.7211   ZX=     7.0074
   XY=    -1.2379   YY=    20.1801   ZY=    -0.8331
   XZ=     6.3285   YZ=    -0.7076   ZZ=    22.8606
   Eigenvalues:    18.2498    19.9863    32.7714
     57  C    Isotropic =    49.3321   Anisotropy =   156.2876
   XX=   -43.5029   YX=    24.2443   ZX=     0.7800
   XY=    26.4063   YY=   150.2023   ZY=     1.6854
   XZ=    -0.0618   YZ=     3.6759   ZZ=    41.2969
   Eigenvalues:   -46.7592    41.2317   153.5238
     58  H    Isotropic =    24.0225   Anisotropy =     5.6385
   XX=    27.6704   YX=    -0.8195   ZX=     0.6990
   XY=    -0.8175   YY=    20.9449   ZY=     0.1203
   XZ=    -0.2408   YZ=    -0.2866   ZZ=    23.4523
   Eigenvalues:    20.8456    23.4404    27.7815
     59  H    Isotropic =    23.6456   Anisotropy =     5.8582
   XX=    27.4405   YX=    -0.7508   ZX=    -0.5838
   XY=    -0.8908   YY=    20.5620   ZY=    -0.0754
   XZ=     0.0640   YZ=    -0.0054   ZZ=    22.9342
   Eigenvalues:    20.4634    22.9223    27.5510
     60  H    Isotropic =    24.1935   Anisotropy =     2.3465
   XX=    25.7124   YX=    -0.3130   ZX=     0.0839
   XY=    -0.4378   YY=    21.4178   ZY=    -0.1170
   XZ=     0.0134   YZ=    -0.2041   ZZ=    25.4504
   Eigenvalues:    21.3793    25.4435    25.7579
 End of Minotr F.D. properties file   721 does not exist.
 End of Minotr F.D. properties file   722 does not exist.
 End of Minotr F.D. properties file   788 does not exist.
 Leave Link 1002 at Sun Aug 25 10:10:32 2019, MaxMem=   939524096 cpu:     39164.4
 (Enter /scr/programas/g09/l601.exe)
 Copying SCF densities to generalized density rwf, IOpCl= 0 IROHF=0.

 **********************************************************************

            Population analysis using the SCF density.

 **********************************************************************

 Orbital symmetries:
       Occupied  (A) (A) (A) (A) (A) (A) (A) (A) (A) (A) (A) (A)
                 (A) (A) (A) (A) (A) (A) (A) (A) (A) (A) (A) (A)
                 (A) (A) (A) (A) (A) (A) (A) (A) (A) (A) (A) (A)
                 (A) (A) (A) (A) (A) (A) (A) (A) (A) (A) (A) (A)
                 (A) (A) (A) (A) (A) (A) (A) (A) (A) (A) (A) (A)
                 (A) (A) (A) (A) (A) (A) (A) (A) (A) (A) (A) (A)
                 (A) (A) (A) (A) (A) (A) (A) (A) (A) (A) (A) (A)
                 (A) (A) (A) (A) (A) (A) (A) (A) (A) (A) (A) (A)
                 (A) (A) (A) (A) (A) (A) (A) (A) (A) (A) (A) (A)
                 (A) (A) (A) (A) (A) (A) (A) (A) (A) (A) (A) (A)
                 (A) (A) (A) (A) (A) (A) (A) (A) (A) (A) (A) (A)
                 (A) (A) (A) (A) (A) (A) (A) (A) (A) (A) (A) (A)
                 (A) (A) (A) (A) (A) (A) (A) (A) (A) (A) (A) (A)
                 (A) (A) (A) (A) (A) (A) (A) (A) (A) (A) (A) (A)
                 (A) (A) (A) (A) (A) (A) (A) (A)
       Virtual   (A) (A) (A) (A) (A) (A) (A) (A) (A) (A) (A) (A)
                 (A) (A) (A) (A) (A) (A) (A) (A) (A) (A) (A) (A)
                 (A) (A) (A) (A) (A) (A) (A) (A) (A) (A) (A) (A)
                 (A) (A) (A) (A) (A) (A) (A) (A) (A) (A) (A) (A)
                 (A) (A) (A) (A) (A) (A) (A) (A) (A) (A) (A) (A)
                 (A) (A) (A) (A) (A) (A) (A) (A) (A) (A) (A) (A)
                 (A) (A) (A) (A) (A) (A) (A) (A) (A) (A) (A) (A)
                 (A) (A) (A) (A) (A) (A) (A) (A) (A) (A) (A) (A)
                 (A) (A) (A) (A) (A) (A) (A) (A) (A) (A) (A) (A)
                 (A) (A) (A) (A) (A) (A) (A) (A) (A) (A) (A) (A)
                 (A) (A) (A) (A) (A) (A) (A) (A) (A) (A) (A) (A)
                 (A) (A) (A) (A) (A) (A) (A) (A) (A) (A) (A) (A)
                 (A) (A) (A) (A) (A) (A) (A) (A) (A) (A) (A) (A)
                 (A) (A) (A) (A) (A) (A) (A) (A) (A) (A) (A) (A)
                 (A) (A) (A) (A) (A) (A) (A) (A) (A) (A) (A) (A)
                 (A) (A) (A) (A) (A) (A) (A) (A) (A) (A) (A) (A)
                 (A) (A) (A) (A) (A) (A) (A) (A) (A) (A) (A) (A)
                 (A) (A) (A) (A) (A) (A) (A) (A) (A) (A) (A) (A)
                 (A) (A) (A) (A) (A) (A) (A) (A) (A) (A) (A) (A)
                 (A) (A) (A) (A) (A) (A) (A) (A) (A) (A) (A) (A)
                 (A) (A) (A) (A) (A) (A) (A) (A) (A) (A) (A) (A)
                 (A) (A) (A) (A) (A) (A) (A) (A) (A) (A) (A) (A)
                 (A) (A) (A) (A) (A) (A) (A) (A) (A) (A) (A) (A)
                 (A) (A) (A) (A) (A) (A) (A) (A) (A) (A) (A) (A)
                 (A) (A) (A) (A) (A) (A) (A) (A) (A) (A) (A) (A)
                 (A) (A) (A) (A) (A) (A) (A) (A) (A) (A) (A) (A)
                 (A) (A) (A) (A) (A) (A) (A) (A) (A) (A) (A) (A)
                 (A) (A) (A) (A) (A) (A) (A) (A) (A) (A) (A) (A)
                 (A) (A) (A) (A) (A) (A) (A) (A) (A) (A) (A) (A)
                 (A) (A) (A) (A) (A) (A) (A) (A) (A) (A) (A) (A)
                 (A) (A) (A) (A) (A) (A) (A) (A) (A) (A) (A) (A)
                 (A) (A) (A) (A) (A) (A) (A) (A) (A) (A) (A) (A)
                 (A) (A) (A) (A) (A) (A) (A) (A) (A) (A) (A) (A)
                 (A) (A) (A) (A) (A) (A) (A) (A) (A) (A) (A) (A)
                 (A) (A) (A) (A) (A) (A) (A) (A) (A) (A) (A) (A)
                 (A) (A) (A) (A) (A) (A) (A) (A) (A) (A) (A) (A)
                 (A) (A) (A) (A) (A) (A) (A) (A) (A) (A) (A) (A)
                 (A) (A) (A) (A) (A) (A) (A) (A) (A) (A) (A) (A)
                 (A) (A) (A) (A) (A) (A) (A) (A) (A) (A) (A) (A)
                 (A) (A) (A) (A) (A) (A) (A) (A) (A) (A) (A) (A)
                 (A) (A) (A) (A) (A) (A) (A) (A) (A) (A) (A) (A)
                 (A) (A) (A) (A) (A) (A) (A) (A) (A) (A) (A) (A)
                 (A) (A) (A) (A) (A) (A) (A) (A) (A) (A) (A) (A)
                 (A) (A) (A) (A) (A) (A) (A) (A) (A) (A) (A) (A)
                 (A) (A) (A) (A) (A) (A) (A) (A) (A) (A) (A) (A)
                 (A) (A) (A) (A) (A) (A) (A) (A) (A) (A) (A) (A)
                 (A) (A) (A) (A) (A) (A) (A) (A) (A) (A) (A) (A)
                 (A) (A) (A) (A) (A) (A) (A) (A) (A) (A) (A) (A)
                 (A) (A) (A) (A) (A) (A) (A) (A) (A) (A) (A) (A)
                 (A) (A) (A) (A) (A) (A) (A) (A) (A) (A) (A) (A)
                 (A) (A) (A) (A) (A) (A) (A) (A) (A) (A) (A) (A)
                 (A) (A) (A) (A) (A) (A) (A) (A) (A) (A) (A) (A)
                 (A) (A) (A) (A) (A) (A) (A) (A) (A) (A) (A) (A)
                 (A) (A) (A) (A) (A) (A) (A) (A) (A) (A) (A) (A)
                 (A) (A) (A) (A) (A) (A) (A) (A) (A) (A) (A) (A)
                 (A) (A) (A) (A) (A) (A) (A) (A) (A) (A) (A) (A)
                 (A) (A) (A) (A) (A) (A) (A) (A) (A) (A) (A) (A)
                 (A) (A) (A) (A) (A) (A) (A) (A) (A) (A) (A) (A)
                 (A) (A) (A) (A) (A) (A) (A) (A) (A) (A) (A) (A)
                 (A) (A) (A) (A) (A) (A) (A) (A) (A) (A) (A) (A)
                 (A) (A) (A) (A) (A) (A) (A) (A) (A) (A) (A) (A)
                 (A) (A) (A) (A) (A) (A) (A) (A) (A) (A) (A) (A)
                 (A) (A) (A) (A) (A) (A) (A) (A) (A) (A) (A) (A)
                 (A) (A) (A) (A) (A) (A) (A) (A) (A) (A) (A) (A)
                 (A) (A) (A) (A) (A) (A) (A) (A) (A) (A) (A) (A)
                 (A) (A) (A) (A) (A) (A) (A) (A) (A) (A) (A) (A)
                 (A) (A) (A) (A) (A) (A) (A) (A) (A) (A) (A) (A)
                 (A) (A) (A) (A) (A) (A) (A) (A) (A) (A) (A) (A)
                 (A) (A) (A) (A) (A) (A) (A) (A) (A) (A) (A) (A)
                 (A) (A) (A) (A) (A) (A) (A) (A) (A) (A) (A) (A)
                 (A) (A) (A) (A) (A) (A) (A) (A) (A) (A) (A) (A)
                 (A) (A) (A) (A) (A) (A) (A) (A) (A) (A) (A) (A)
                 (A) (A) (A) (A) (A) (A) (A) (A) (A) (A) (A) (A)
                 (A) (A) (A) (A) (A) (A) (A) (A) (A) (A) (A) (A)
                 (A) (A) (A) (A) (A) (A) (A) (A) (A) (A) (A) (A)
                 (A) (A) (A) (A) (A) (A) (A) (A) (A) (A) (A) (A)
                 (A) (A) (A) (A) (A) (A) (A) (A) (A) (A) (A) (A)
                 (A) (A) (A) (A) (A) (A) (A) (A) (A) (A) (A) (A)
                 (A) (A) (A) (A) (A) (A) (A) (A) (A) (A) (A) (A)
                 (A) (A) (A) (A) (A) (A) (A) (A) (A) (A) (A) (A)
                 (A) (A) (A) (A) (A) (A) (A) (A) (A) (A) (A) (A)
                 (A) (A) (A) (A) (A) (A) (A) (A) (A) (A) (A) (A)
                 (A) (A) (A) (A) (A) (A) (A) (A) (A) (A) (A) (A)
                 (A) (A) (A) (A) (A) (A) (A) (A) (A) (A) (A)
 The electronic state is 1-A.
 Alpha  occ. eigenvalues -- ********************-427.53636-414.86684-414.86645
 Alpha  occ. eigenvalues -- -414.86371-149.64910-141.92721-141.92717-141.92646
 Alpha  occ. eigenvalues -- -100.55359-100.55295-100.55246 -99.91667 -92.07526
 Alpha  occ. eigenvalues --  -92.07400 -92.07054 -79.03405 -79.03285 -79.03092
 Alpha  occ. eigenvalues --  -79.03028 -79.02984 -76.29763 -76.29553 -28.81301
 Alpha  occ. eigenvalues --  -25.15934 -25.15926 -25.15700 -20.83135 -17.70826
 Alpha  occ. eigenvalues --  -17.70826 -17.70674 -17.70670 -17.70625 -17.39978
 Alpha  occ. eigenvalues --  -17.39743 -17.39003 -11.58352 -11.57929 -11.57530
 Alpha  occ. eigenvalues --  -11.57412 -11.57327  -9.90707  -9.90633  -9.90614
 Alpha  occ. eigenvalues --   -9.90521  -9.90464  -9.90398  -9.90264  -9.89593
 Alpha  occ. eigenvalues --   -9.89591  -9.89249  -9.89218  -9.89209  -9.89038
 Alpha  occ. eigenvalues --   -9.88990  -9.88957  -9.88950  -9.88931  -9.88509
 Alpha  occ. eigenvalues --   -9.13219  -9.13147  -9.13101  -6.96973  -6.96896
 Alpha  occ. eigenvalues --   -6.96860  -6.96426  -6.96415  -6.96362  -6.96344
 Alpha  occ. eigenvalues --   -6.96310  -6.96293  -6.32767  -6.32603  -4.55302
 Alpha  occ. eigenvalues --   -4.55295  -4.55130  -4.55118  -4.55019  -4.54865
 Alpha  occ. eigenvalues --   -4.50013  -3.23462  -3.23435  -3.23032  -3.13213
 Alpha  occ. eigenvalues --   -3.13178  -3.12737  -3.12435  -3.12321  -3.12233
 Alpha  occ. eigenvalues --   -3.12197  -2.86099  -1.81103  -1.80940  -1.78431
 Alpha  occ. eigenvalues --   -1.02492  -1.02486  -1.02121  -1.02083  -1.01985
 Alpha  occ. eigenvalues --   -0.77550  -0.73402  -0.73280  -0.71887  -0.70367
 Alpha  occ. eigenvalues --   -0.70322  -0.69524  -0.69288  -0.69064  -0.69038
 Alpha  occ. eigenvalues --   -0.67393  -0.66932  -0.61279  -0.60985  -0.57145
 Alpha  occ. eigenvalues --   -0.56705  -0.56469  -0.55526  -0.54142  -0.53354
 Alpha  occ. eigenvalues --   -0.48989  -0.48212  -0.46197  -0.43032  -0.42468
 Alpha  occ. eigenvalues --   -0.42249  -0.41927  -0.41470  -0.40843  -0.40358
 Alpha  occ. eigenvalues --   -0.39997  -0.39881  -0.38458  -0.38232  -0.37827
 Alpha  occ. eigenvalues --   -0.37620  -0.37205  -0.37027  -0.36673  -0.36489
 Alpha  occ. eigenvalues --   -0.35865  -0.35198  -0.34802  -0.34587  -0.33841
 Alpha  occ. eigenvalues --   -0.33371  -0.33179  -0.32868  -0.32531  -0.32099
 Alpha  occ. eigenvalues --   -0.32057  -0.31847  -0.31741  -0.31427  -0.31028
 Alpha  occ. eigenvalues --   -0.30901  -0.30204  -0.29995  -0.29905  -0.28940
 Alpha  occ. eigenvalues --   -0.28615  -0.28243  -0.27965  -0.27359  -0.27173
 Alpha  occ. eigenvalues --   -0.27092  -0.26112  -0.25716  -0.25644  -0.25387
 Alpha  occ. eigenvalues --   -0.25136  -0.23524  -0.22978  -0.22311  -0.20990
 Alpha  occ. eigenvalues --   -0.19854
 Alpha virt. eigenvalues --   -0.07968  -0.06310  -0.04653  -0.04601  -0.03873
 Alpha virt. eigenvalues --   -0.02857  -0.02201  -0.01633  -0.01396  -0.00587
 Alpha virt. eigenvalues --   -0.00281  -0.00150   0.00118   0.00741   0.01417
 Alpha virt. eigenvalues --    0.01726   0.01973   0.02613   0.03233   0.03436
 Alpha virt. eigenvalues --    0.03590   0.04070   0.04193   0.04393   0.04720
 Alpha virt. eigenvalues --    0.05031   0.05270   0.05354   0.05608   0.06018
 Alpha virt. eigenvalues --    0.06169   0.06415   0.06752   0.07026   0.07278
 Alpha virt. eigenvalues --    0.07467   0.07691   0.08281   0.08304   0.08535
 Alpha virt. eigenvalues --    0.08575   0.08865   0.09277   0.09497   0.09675
 Alpha virt. eigenvalues --    0.09809   0.10078   0.10301   0.10347   0.10491
 Alpha virt. eigenvalues --    0.10734   0.10947   0.11281   0.11339   0.11660
 Alpha virt. eigenvalues --    0.11984   0.12067   0.12283   0.12396   0.12608
 Alpha virt. eigenvalues --    0.12826   0.13049   0.13580   0.13750   0.14117
 Alpha virt. eigenvalues --    0.14344   0.14526   0.14575   0.14911   0.15114
 Alpha virt. eigenvalues --    0.15276   0.15415   0.15610   0.15657   0.16073
 Alpha virt. eigenvalues --    0.16227   0.16694   0.16796   0.17138   0.17197
 Alpha virt. eigenvalues --    0.17904   0.18049   0.18305   0.18332   0.18779
 Alpha virt. eigenvalues --    0.19064   0.19430   0.19724   0.19900   0.20019
 Alpha virt. eigenvalues --    0.20220   0.20469   0.20735   0.21251   0.21353
 Alpha virt. eigenvalues --    0.21605   0.21806   0.22145   0.22265   0.22603
 Alpha virt. eigenvalues --    0.22680   0.22867   0.23320   0.23738   0.23785
 Alpha virt. eigenvalues --    0.24126   0.24159   0.24492   0.24574   0.25142
 Alpha virt. eigenvalues --    0.25251   0.25521   0.25728   0.26031   0.26106
 Alpha virt. eigenvalues --    0.26526   0.26747   0.26918   0.27282   0.27460
 Alpha virt. eigenvalues --    0.27736   0.27943   0.28259   0.28642   0.28789
 Alpha virt. eigenvalues --    0.29058   0.29117   0.29866   0.29939   0.30371
 Alpha virt. eigenvalues --    0.30520   0.30606   0.31186   0.31426   0.31765
 Alpha virt. eigenvalues --    0.32037   0.32145   0.32295   0.32536   0.32897
 Alpha virt. eigenvalues --    0.33012   0.33123   0.33389   0.33394   0.34152
 Alpha virt. eigenvalues --    0.34260   0.34458   0.34627   0.34867   0.35039
 Alpha virt. eigenvalues --    0.35436   0.35733   0.35999   0.36499   0.36845
 Alpha virt. eigenvalues --    0.37139   0.37289   0.37682   0.37849   0.38073
 Alpha virt. eigenvalues --    0.38396   0.38778   0.39029   0.39258   0.39568
 Alpha virt. eigenvalues --    0.39836   0.40066   0.40608   0.40816   0.41042
 Alpha virt. eigenvalues --    0.41327   0.41534   0.41802   0.42096   0.42390
[...]
 Alpha virt. eigenvalues --    0.46102   0.46500   0.46546   0.46774   0.46837
 Alpha virt. eigenvalues --    0.47239   0.47668   0.47758   0.47985   0.48319
 Alpha virt. eigenvalues --    0.48406   0.48522   0.48938   0.49102   0.49151
 Alpha virt. eigenvalues --    0.49368   0.49443   0.49576   0.50040   0.50207
 Alpha virt. eigenvalues --    0.50551   0.50884   0.51054   0.51269   0.51510
 Alpha virt. eigenvalues --    0.51882   0.52008   0.52412   0.52548   0.52814
 Alpha virt. eigenvalues --    0.53011   0.53307   0.53532   0.53827   0.53898
 Alpha virt. eigenvalues --    0.54428   0.54539   0.54760   0.54936   0.55194
 Alpha virt. eigenvalues --    0.55434   0.55558   0.55877   0.56019   0.56286
 Alpha virt. eigenvalues --    0.56491   0.56697   0.56992   0.57428   0.57536
 Alpha virt. eigenvalues --    0.57832   0.57933   0.58268   0.58673   0.58916
 Alpha virt. eigenvalues --    0.59223   0.59336   0.59430   0.59638   0.59699
 Alpha virt. eigenvalues --    0.59967   0.60404   0.60635   0.61075   0.61207
 Alpha virt. eigenvalues --    0.61357   0.61701   0.62077   0.62441   0.62508
 Alpha virt. eigenvalues --    0.62823   0.63015   0.63198   0.63667   0.63765
 Alpha virt. eigenvalues --    0.64091   0.64479   0.64556   0.64695   0.65271
 Alpha virt. eigenvalues --    0.65536   0.65618   0.65702   0.65892   0.66224
 Alpha virt. eigenvalues --    0.66500   0.66615   0.67139   0.67427   0.67713
 Alpha virt. eigenvalues --    0.67816   0.68084   0.68456   0.68677   0.68829
 Alpha virt. eigenvalues --    0.69071   0.69335   0.69708   0.70172   0.70408
 Alpha virt. eigenvalues --    0.70474   0.70520   0.70932   0.71217   0.71426
 Alpha virt. eigenvalues --    0.71722   0.71930   0.72201   0.72417   0.72774
 Alpha virt. eigenvalues --    0.73200   0.73344   0.73692   0.73816   0.73960
 Alpha virt. eigenvalues --    0.74595   0.74821   0.75015   0.75278   0.75544
 Alpha virt. eigenvalues --    0.75958   0.76040   0.76483   0.76515   0.76900
 Alpha virt. eigenvalues --    0.77062   0.77302   0.77701   0.78116   0.78193
 Alpha virt. eigenvalues --    0.78472   0.78902   0.79039   0.79126   0.79494
 Alpha virt. eigenvalues --    0.79929   0.79952   0.80222   0.80715   0.81031
 Alpha virt. eigenvalues --    0.81244   0.81462   0.81619   0.82136   0.82390
 Alpha virt. eigenvalues --    0.82920   0.82969   0.83220   0.83290   0.83837
 Alpha virt. eigenvalues --    0.84044   0.84351   0.84678   0.84767   0.84996
 Alpha virt. eigenvalues --    0.85121   0.85612   0.85738   0.86043   0.86282
 Alpha virt. eigenvalues --    0.86690   0.87114   0.87159   0.87649   0.87733
 Alpha virt. eigenvalues --    0.87937   0.88191   0.88682   0.88829   0.89163
 Alpha virt. eigenvalues --    0.89751   0.90101   0.90496   0.90827   0.91145
 Alpha virt. eigenvalues --    0.91328   0.91453   0.91575   0.92262   0.92334
 Alpha virt. eigenvalues --    0.92399   0.92818   0.93177   0.93555   0.93653
 Alpha virt. eigenvalues --    0.94107   0.94322   0.94628   0.94898   0.95121
 Alpha virt. eigenvalues --    0.95475   0.95886   0.96449   0.96725   0.96954
 Alpha virt. eigenvalues --    0.97264   0.97457   0.98345   0.98512   0.98813
 Alpha virt. eigenvalues --    0.99122   0.99334   0.99905   1.00118   1.00361
 Alpha virt. eigenvalues --    1.00612   1.01232   1.01491   1.01813   1.02193
 Alpha virt. eigenvalues --    1.02543   1.02891   1.03340   1.03553   1.03998
 Alpha virt. eigenvalues --    1.04517   1.04690   1.04776   1.05057   1.05597
 Alpha virt. eigenvalues --    1.05735   1.06293   1.06477   1.06930   1.07118
 Alpha virt. eigenvalues --    1.07822   1.08400   1.08629   1.09367   1.09794
 Alpha virt. eigenvalues --    1.09882   1.10232   1.10623   1.10729   1.11424
 Alpha virt. eigenvalues --    1.11701   1.12182   1.12280   1.12697   1.12963
 Alpha virt. eigenvalues --    1.13275   1.13517   1.13986   1.14481   1.15179
 Alpha virt. eigenvalues --    1.15478   1.15920   1.16172   1.16250   1.17083
 Alpha virt. eigenvalues --    1.17322   1.17638   1.18331   1.18957   1.19285
 Alpha virt. eigenvalues --    1.19698   1.19956   1.20172   1.20734   1.21728
 Alpha virt. eigenvalues --    1.21867   1.22073   1.22259   1.22731   1.23203
 Alpha virt. eigenvalues --    1.23823   1.24459   1.25197   1.26120   1.26335
 Alpha virt. eigenvalues --    1.26772   1.27655   1.28340   1.28784   1.28982
 Alpha virt. eigenvalues --    1.29468   1.29725   1.29851   1.30528   1.30937
 Alpha virt. eigenvalues --    1.31568   1.32556   1.32782   1.32899   1.33558
 Alpha virt. eigenvalues --    1.33828   1.34082   1.34998   1.35126   1.35636
 Alpha virt. eigenvalues --    1.35771   1.36819   1.36872   1.37397   1.37891
 Alpha virt. eigenvalues --    1.38392   1.38863   1.39146   1.39658   1.40192
 Alpha virt. eigenvalues --    1.40682   1.40782   1.41142   1.41949   1.42293
 Alpha virt. eigenvalues --    1.42728   1.43151   1.43310   1.44121   1.44355
 Alpha virt. eigenvalues --    1.44594   1.45193   1.45900   1.46048   1.46144
 Alpha virt. eigenvalues --    1.47253   1.47822   1.48348   1.48534   1.48967
 Alpha virt. eigenvalues --    1.49520   1.49704   1.50456   1.51169   1.51350
 Alpha virt. eigenvalues --    1.51910   1.52069   1.52884   1.53253   1.53907
 Alpha virt. eigenvalues --    1.54175   1.54582   1.54995   1.55853   1.56455
 Alpha virt. eigenvalues --    1.56801   1.57271   1.57516   1.58094   1.58874
 Alpha virt. eigenvalues --    1.59145   1.59946   1.60002   1.60497   1.61189
 Alpha virt. eigenvalues --    1.61841   1.62440   1.62848   1.63873   1.64368
 Alpha virt. eigenvalues --    1.65345   1.65769   1.66063   1.66356   1.67417
 Alpha virt. eigenvalues --    1.68327   1.68444   1.69370   1.69678   1.70393
 Alpha virt. eigenvalues --    1.71239   1.71598   1.71732   1.72665   1.73594
 Alpha virt. eigenvalues --    1.73811   1.74615   1.74678   1.74943   1.75748
 Alpha virt. eigenvalues --    1.76356   1.76966   1.77074   1.78589   1.79123
 Alpha virt. eigenvalues --    1.79533   1.80505   1.80572   1.81492   1.82281
 Alpha virt. eigenvalues --    1.83065   1.83444   1.83796   1.84555   1.84803
 Alpha virt. eigenvalues --    1.85267   1.85647   1.85787   1.86410   1.87230
 Alpha virt. eigenvalues --    1.87515   1.87808   1.88607   1.89209   1.89553
 Alpha virt. eigenvalues --    1.90005   1.90438   1.91651   1.91969   1.92349
 Alpha virt. eigenvalues --    1.92926   1.93270   1.93818   1.94679   1.94968
 Alpha virt. eigenvalues --    1.95418   1.96165   1.96764   1.97316   1.97900
 Alpha virt. eigenvalues --    1.98579   1.99011   1.99581   2.00056   2.00908
 Alpha virt. eigenvalues --    2.01234   2.01558   2.02206   2.03259   2.04220
 Alpha virt. eigenvalues --    2.04486   2.04942   2.05731   2.06456   2.06803
 Alpha virt. eigenvalues --    2.07387   2.07559   2.07905   2.08723   2.09885
 Alpha virt. eigenvalues --    2.10358   2.10803   2.11296   2.12483   2.12726
 Alpha virt. eigenvalues --    2.13594   2.14283   2.14757   2.14974   2.15804
 Alpha virt. eigenvalues --    2.15987   2.16221   2.16695   2.16949   2.17676
 Alpha virt. eigenvalues --    2.18003   2.18604   2.19321   2.19816   2.20214
 Alpha virt. eigenvalues --    2.20804   2.21675   2.22033   2.22216   2.23573
 Alpha virt. eigenvalues --    2.23653   2.24610   2.25053   2.25822   2.26277
 Alpha virt. eigenvalues --    2.27233   2.28378   2.28975   2.29202   2.30197
 Alpha virt. eigenvalues --    2.30654   2.30791   2.31956   2.32300   2.33046
 Alpha virt. eigenvalues --    2.33097   2.33467   2.33949   2.34307   2.34519
 Alpha virt. eigenvalues --    2.35866   2.36347   2.36798   2.36838   2.37418
 Alpha virt. eigenvalues --    2.37626   2.38432   2.38583   2.38956   2.39351
 Alpha virt. eigenvalues --    2.40244   2.40494   2.41364   2.41780   2.42526
 Alpha virt. eigenvalues --    2.43037   2.43591   2.44227   2.44875   2.45654
 Alpha virt. eigenvalues --    2.46006   2.46708   2.47123   2.47860   2.48289
 Alpha virt. eigenvalues --    2.48609   2.49256   2.50231   2.50577   2.51452
 Alpha virt. eigenvalues --    2.51873   2.52582   2.53480   2.54514   2.55572
 Alpha virt. eigenvalues --    2.56617   2.56927   2.57534   2.58268   2.58710
 Alpha virt. eigenvalues --    2.59941   2.60967   2.61585   2.61981   2.63008
 Alpha virt. eigenvalues --    2.63415   2.63478   2.63843   2.64387   2.64967
 Alpha virt. eigenvalues --    2.65820   2.66745   2.67324   2.67923   2.68470
 Alpha virt. eigenvalues --    2.68915   2.69577   2.70434   2.71457   2.72927
 Alpha virt. eigenvalues --    2.73912   2.74477   2.75084   2.75334   2.76437
 Alpha virt. eigenvalues --    2.76746   2.77314   2.78380   2.78447   2.78998
 Alpha virt. eigenvalues --    2.79840   2.80184   2.80950   2.81819   2.82311
 Alpha virt. eigenvalues --    2.82734   2.83081   2.84688   2.84996   2.89140
 Alpha virt. eigenvalues --    2.90944   2.93708   2.94148   2.94859   2.95153
 Alpha virt. eigenvalues --    2.96696   2.97507   2.98550   2.99694   3.01010
 Alpha virt. eigenvalues --    3.02534   3.04514   3.05911   3.06697   3.06953
 Alpha virt. eigenvalues --    3.07764   3.08388   3.09549   3.11354   3.11551
 Alpha virt. eigenvalues --    3.11737   3.12752   3.13306   3.14250   3.14411
 Alpha virt. eigenvalues --    3.14989   3.15551   3.15634   3.16104   3.16903
 Alpha virt. eigenvalues --    3.17375   3.17882   3.20150   3.20588   3.21697
 Alpha virt. eigenvalues --    3.22394   3.23100   3.23632   3.24204   3.24938
 Alpha virt. eigenvalues --    3.27060   3.27799   3.28694   3.29056   3.29699
 Alpha virt. eigenvalues --    3.29825   3.30323   3.30971   3.31822   3.32600
 Alpha virt. eigenvalues --    3.33024   3.33402   3.33949   3.34580   3.35783
 Alpha virt. eigenvalues --    3.39205   3.41361   3.47203   3.47579   3.50802
 Alpha virt. eigenvalues --    3.53156   3.55620   3.58347   3.61781   3.63351
 Alpha virt. eigenvalues --    3.70943   3.75393   3.94939   3.97275   4.00475
 Alpha virt. eigenvalues --    4.05172   4.16605   4.19638   4.19816   4.22098
 Alpha virt. eigenvalues --    4.22451   4.23973   4.25445   4.26389   4.28530
 Alpha virt. eigenvalues --    4.31540   4.34882   4.39009   4.41047   4.42087
 Alpha virt. eigenvalues --    4.43791   4.44183   4.45244   4.47074   4.48021
 Alpha virt. eigenvalues --    4.50955   4.63257   4.83295   5.46922   5.59939
 Alpha virt. eigenvalues --    5.65738   5.83388   6.09437   6.13420   6.68469
 Alpha virt. eigenvalues --    6.69461   6.69599   6.69994   6.72294   6.72715
 Alpha virt. eigenvalues --    6.73045   6.73545   6.74002   6.74321   6.75210
 Alpha virt. eigenvalues --    6.75691   6.77406   6.78564   6.81095   6.83060
 Alpha virt. eigenvalues --    6.85402   6.89814   6.90899   6.91570   6.92731
 Alpha virt. eigenvalues --    6.93083   6.93582   6.94028   6.95206   6.95521
 Alpha virt. eigenvalues --    6.96544   6.98385   6.98718   6.99647   7.00414
 Alpha virt. eigenvalues --    7.02200   7.03122   7.04535   7.05591   7.05968
 Alpha virt. eigenvalues --    7.08696   7.11037   7.13554   7.28725   7.64293
 Alpha virt. eigenvalues --    7.69567   7.71896   7.73065   7.75652   7.76000
 Alpha virt. eigenvalues --    8.49400   8.50613   8.50760   8.51374   8.51794
 Alpha virt. eigenvalues --    8.52652   8.55015   8.61367   8.71770   9.01287
 Alpha virt. eigenvalues --    9.83186   9.83588   9.85307   9.87232   9.89580
 Alpha virt. eigenvalues --    9.90272   9.96243   9.99572  10.01888  10.05610
 Alpha virt. eigenvalues --   10.06013  10.07783  10.10676  10.33029  14.02700
 Alpha virt. eigenvalues --   14.14986  15.59214  16.72063  16.76729  16.90973
 Alpha virt. eigenvalues --   17.02499  17.04521  17.06155  17.06564  17.07792
 Alpha virt. eigenvalues --   17.08493  17.08968  17.11632  17.14885  17.15531
 Alpha virt. eigenvalues --   17.19648  17.19995  17.21526  17.23808  17.24862
 Alpha virt. eigenvalues --   17.33373  17.36715  17.45028  21.06535  21.31690
 Alpha virt. eigenvalues --   21.33731  25.46094  25.55490  25.59148  26.17814
 Alpha virt. eigenvalues --   31.67640  31.69988  31.73489  31.75505  31.80446
 Alpha virt. eigenvalues --   42.99050  43.02741  43.03122  43.05528  43.21462
 Alpha virt. eigenvalues --   61.75182  61.86073  62.96235  78.04538  78.08722
 Alpha virt. eigenvalues --   78.21260  82.22105  86.17858  86.38448  86.39954
 Alpha virt. eigenvalues --   89.27591  89.29829  89.31861  89.32896  89.33807
 Alpha virt. eigenvalues --   89.34166  89.35344  89.38207  89.40601  89.41301
 Alpha virt. eigenvalues --   89.45512  89.45606  89.47369  89.49582  89.50170
 Alpha virt. eigenvalues --   89.60019  89.64301  89.69839 121.81762 121.88456
 Alpha virt. eigenvalues --  121.90968 239.14584 257.32866 332.07653 332.19173
 Alpha virt. eigenvalues --  428.77502 428.93647 428.94884 431.66042 431.70524
 Alpha virt. eigenvalues --  431.83737 590.19469 590.24655 590.26518 773.00370
 Alpha virt. eigenvalues --  839.549922068.602672529.930175495.40223**********
 Alpha virt. eigenvalues -- ********************
          Condensed to atoms (all electrons):
 Mulliken charges:
               1
     1  Pt   0.310956
     2  P    0.055188
     3  P    0.227205
     4  C   -0.373493
     5  H    0.088536
     6  H    0.094832
     7  C   -0.177914
     8  H    0.108591
     9  H    0.136792
    10  H    0.113328
    11  C   -0.319087
    12  H    0.095573
    13  C   -0.283987
    14  H    0.107855
    15  H    0.083725
    16  C   -0.106019
    17  H    0.119218
    18  H    0.053207
    19  H    0.092007
    20  C   -0.402924
    21  H    0.111497
    22  H    0.081712
    23  C   -0.118438
    24  H    0.107077
    25  H    0.072932
    26  H    0.134036
    27  C   -0.409377
    28  H    0.080288
    29  H    0.082880
    30  C   -0.182544
    31  H    0.137016
    32  H    0.114161
    33  H    0.113985
    34  C   -0.440429
    35  H    0.102744
    36  H    0.087235
    37  C   -0.092081
    38  H    0.135988
    39  H    0.072127
    40  H    0.094721
    41  Sn   0.307394
    42  Cl  -0.284907
    43  Cl  -0.292607
    44  Cl  -0.233662
    45  C   -0.173009
    46  H    0.131813
    47  H    0.115779
    48  H    0.112326
    49  H    0.077872
    50  C    0.012148
    51  C    0.045839
    52  C    0.006567
    53  C    0.002582
    54  H    0.052329
    55  C   -0.102133
    56  H    0.059684
    57  C   -0.572528
    58  H    0.132104
    59  H    0.136182
    60  H    0.157111
 Sum of Mulliken charges =   0.00000
 Mulliken charges with hydrogens summed into heavy atoms:
               1
     1  Pt   0.310956
     2  P    0.055188
     3  P    0.227205
     4  C   -0.190125
     7  C    0.180797
    11  C   -0.145642
    13  C   -0.092407
    16  C    0.158413
    20  C   -0.209716
    23  C    0.195607
    27  C   -0.246209
    30  C    0.182618
    34  C   -0.250450
    37  C    0.210754
    41  Sn   0.307394
    42  Cl  -0.284907
    43  Cl  -0.292607
    44  Cl  -0.233662
    45  C    0.186910
    50  C    0.012148
    51  C    0.098168
    52  C    0.066250
    53  C    0.134685
    55  C    0.034049
    57  C   -0.415418
 Electronic spatial extent (au):  <R**2>=          14576.0601
 Charge=              0.0000 electrons
 Dipole moment (field-independent basis, Debye):
    X=            -13.2073    Y=              1.7905    Z=             -0.4187  Tot=             13.3347
 Quadrupole moment (field-independent basis, Debye-Ang):
   XX=           -274.1367   YY=           -208.8331   ZZ=           -233.9122
   XY=             12.0415   XZ=             -1.2461   YZ=             -1.1808
 Traceless Quadrupole moment (field-independent basis, Debye-Ang):
   XX=            -35.1760   YY=             30.1276   ZZ=              5.0485
   XY=             12.0415   XZ=             -1.2461   YZ=             -1.1808
 Octapole moment (field-independent basis, Debye-Ang**2):
  XXX=           -142.1983  YYY=              1.7516  ZZZ=              2.2385  XYY=            -16.8072
  XXY=             15.7660  XXZ=             -7.7945  XZZ=            -27.4252  YZZ=             -9.3271
  YYZ=            -12.9931  XYZ=              0.8354
 Hexadecapole moment (field-independent basis, Debye-Ang**3):
 XXXX=          -9340.1945 YYYY=          -7589.1862 ZZZZ=          -2525.9214 XXXY=             31.0615
 XXXZ=              7.3884 YYYX=            121.8905 YYYZ=              4.8901 ZZZX=             22.6556
 ZZZY=             -5.9108 XXYY=          -2916.3820 XXZZ=          -1990.3477 YYZZ=          -1669.2667
 XXYZ=            -23.3711 YYXZ=            -23.1794 ZZXY=            -19.0269
 N-N= 7.590357602470D+03 E-N=-7.637284087358D+04  KE= 2.545705319641D+04
 Calculating spin-rotation constants.
 Leave Link  601 at Sun Aug 25 10:14:35 2019, MaxMem=   939524096 cpu:       299.0
 (Enter /scr/programas/g09/l9999.exe)
 1\1\GINC-NQTCM\SP\RPBEPBE\Gen\C18H35Cl3P2Pt1Sn1\NQTCM\25-Aug-2019\0\\#
 PBEPBE/gen scf=(maxcycle=500,conver=4) NMR=GIAO Scrf=(solvent=Dichloro
 methane)\\estrutura 75\\0,1\Pt,0,-0.490848,-0.004029,-0.065283\P,0,-0.
 182583,2.385,-0.125972\P,0,-0.893397,-2.363261,0.043617\C,0,0.051573,2
 .983417,1.612452\H,0,0.812181,2.313501,2.043402\H,0,-0.893756,2.750019
 ,2.129698\C,0,0.453904,4.44488,1.827524\H,0,-0.247633,5.150938,1.35841
 9\H,0,0.47561,4.66821,2.906058\H,0,1.460012,4.650446,1.43267\C,0,1.356
 95,2.870225,-1.063036\H,0,1.461404,2.142359,-1.881849\C,0,-1.528864,3.
 431829,-0.871546\H,0,-1.04475,4.355577,-1.220922\H,0,-1.867889,2.89561
 ,-1.772085\C,0,-2.721811,3.79232,0.018007\H,0,-3.430259,4.408928,-0.55
 8749\H,0,-3.262151,2.906668,0.375453\H,0,-2.415244,4.383986,0.893786\C
 ,0,-0.015439,-3.331907,-1.268098\H,0,-0.265521,-4.395908,-1.123473\H,0
 ,1.06188,-3.238213,-1.053736\C,0,-0.332211,-2.879289,-2.695898\H,0,-1.
 388419,-3.042293,-2.957351\H,0,-0.111474,-1.809083,-2.831984\H,0,0.282
 096,-3.442784,-3.418464\C,0,-2.674379,-2.86388,-0.102185\H,0,-3.188689
 ,-2.38921,0.747502\H,0,-3.066692,-2.357874,-0.997677\C,0,-2.969768,-4.
 364674,-0.15115\H,0,-4.059697,-4.525593,-0.174528\H,0,-2.55172,-4.8424
 71,-1.049873\H,0,-2.582603,-4.898962,0.73042\C,0,-0.308759,-3.129402,1
 .62635\H,0,-0.632267,-4.183212,1.624164\H,0,0.791326,-3.137774,1.57338
 9\C,0,-0.778997,-2.412144,2.894171\H,0,-0.414561,-2.945288,3.787081\H,
 0,-0.389148,-1.382179,2.933996\H,0,-1.877987,-2.361679,2.964293\Sn,0,2
 .223084,-0.394926,0.02955\Cl,0,3.572804,0.005614,-1.97973\Cl,0,3.45934
 8,1.013343,1.628447\Cl,0,3.284093,-2.528795,0.64724\C,0,1.489053,4.289
 742,-1.624134\H,0,2.492721,4.408492,-2.062353\H,0,0.760983,4.48712,-2.
 425214\H,0,1.370959,5.067276,-0.855654\H,0,2.182473,2.660627,-0.362883
 \C,0,-2.521245,0.302434,-0.061968\C,0,-3.235115,0.365262,1.148262\C,0,
 -3.242072,0.424563,-1.262615\C,0,-4.62553,0.540774,1.157885\H,0,-2.706
 923,0.274877,2.101761\C,0,-4.63224,0.603603,-1.254347\H,0,-2.721244,0.
 37572,-2.223365\C,0,-5.330911,0.661047,-0.044035\H,0,-5.157192,0.58597
 5,2.112783\H,0,-5.169938,0.696476,-2.202465\H,0,-6.415261,0.798616,-0.
 037436\\Version=EM64L-G09RevD.01\State=1-A\HF=-25860.0984262\RMSD=2.06
 3e-05\Dipole=-5.1961571,0.7044354,-0.1647472\Quadrupole=-26.1525297,22
 .399122,3.7534077,8.9525873,-0.9264367,-0.8778781\PG=C01 [X(C18H35Cl3P
 2Pt1Sn1)]\\@


 I (ERNEST RUTHERFORD) CAME INTO THE ROOM, WHICH WAS HALF DARK, AND PRESENTLY
 SPOTTED LORD KELVIN IN THE AUDIENCE AND REALIZED I WAS IN TROUBLE AT
 THE LAST PART OF MY SPEECH DEALING THE AGE OF THE EARTH, WHERE MY VIEWS
 CONFLICTED WITH HIS.  TO MY RELIEF KELVIN FELL FAST ASLEEP, BUT AS I CAME
 TO THE IMPORTANT POINT, I SAW THE OLD BIRD SIT UP AND COCK A BALEFUL GLANCE
 AT ME! THEN A SUDDEN INSPIRATION CAME AND I SAID LORD KELVIN HAD LIMITED
 THE AGE OF THE EARTH PROVIDED NO NEW SOURCE WAS DISCOVERED. THAT
 PROPHETIC UTTERANCE REFERS TO WHAT WE ARE NOW CONSIDERING TONIGHT, RADIUM!
 BEHOLD!  THE OLD BOY BEAMED UPON ME.
 Job cpu time:       0 days 17 hours  0 minutes 19.8 seconds.
 File lengths (MBytes):  RWF=   1074 Int=      0 D2E=      0 Chk=     77 Scr=      1
 Normal termination of Gaussian 09 at Sun Aug 25 10:14:35 2019.
