 Entering Gaussian System, Link 0=g09
 Input=estrutura1.com
 Output=estrutura1.log
 Initial command:
 /scr/programas/g09/l1.exe "/scr/nqtcm/Gau-25205.inp" -scrdir="/scr/nqtcm/"
 Entering Link 1 = /scr/programas/g09/l1.exe PID=     25207.
  
 Copyright (c) 1988,1990,1992,1993,1995,1998,2003,2009,2013,
            Gaussian, Inc.  All Rights Reserved.
  
 This is part of the Gaussian(R) 09 program.  It is based on
 the Gaussian(R) 03 system (copyright 2003, Gaussian, Inc.),
 the Gaussian(R) 98 system (copyright 1998, Gaussian, Inc.),
 the Gaussian(R) 94 system (copyright 1995, Gaussian, Inc.),
 the Gaussian 92(TM) system (copyright 1992, Gaussian, Inc.),
 the Gaussian 90(TM) system (copyright 1990, Gaussian, Inc.),
 the Gaussian 88(TM) system (copyright 1988, Gaussian, Inc.),
 the Gaussian 86(TM) system (copyright 1986, Carnegie Mellon
 University), and the Gaussian 82(TM) system (copyright 1983,
 Carnegie Mellon University). Gaussian is a federally registered
 trademark of Gaussian, Inc.
  
 This software contains proprietary and confidential information,
 including trade secrets, belonging to Gaussian, Inc.
  
 This software is provided under written license and may be
 used, copied, transmitted, or stored only in accord with that
 written license.
  
 The following legend is applicable only to US Government
 contracts under FAR:
  
                    RESTRICTED RIGHTS LEGEND
  
 Use, reproduction and disclosure by the US Government is
 subject to restrictions as set forth in subparagraphs (a)
 and (c) of the Commercial Computer Software - Restricted
 Rights clause in FAR 52.227-19.
  
 Gaussian, Inc.
 340 Quinnipiac St., Bldg. 40, Wallingford CT 06492
  
  
 ---------------------------------------------------------------
 Warning -- This program may not be used in any manner that
 competes with the business of Gaussian, Inc. or will provide
 assistance to any competitor of Gaussian, Inc.  The licensee
 of this program is prohibited from giving any competitor of
 Gaussian, Inc. access to this program.  By using this program,
 the user acknowledges that Gaussian, Inc. is engaged in the
 business of creating and licensing software in the field of
 computational chemistry and represents and warrants to the
 licensee that it is not a competitor of Gaussian, Inc. and that
 it will not use this program in any manner prohibited above.
 ---------------------------------------------------------------
  

 Cite this work as:
 Gaussian 09, Revision D.01,
 M. J. Frisch, G. W. Trucks, H. B. Schlegel, G. E. Scuseria, 
 M. A. Robb, J. R. Cheeseman, G. Scalmani, V. Barone, B. Mennucci, 
 G. A. Petersson, H. Nakatsuji, M. Caricato, X. Li, H. P. Hratchian, 
 A. F. Izmaylov, J. Bloino, G. Zheng, J. L. Sonnenberg, M. Hada, 
 M. Ehara, K. Toyota, R. Fukuda, J. Hasegawa, M. Ishida, T. Nakajima, 
 Y. Honda, O. Kitao, H. Nakai, T. Vreven, J. A. Montgomery, Jr., 
 J. E. Peralta, F. Ogliaro, M. Bearpark, J. J. Heyd, E. Brothers, 
 K. N. Kudin, V. N. Staroverov, T. Keith, R. Kobayashi, J. Normand, 
 K. Raghavachari, A. Rendell, J. C. Burant, S. S. Iyengar, J. Tomasi, 
 M. Cossi, N. Rega, J. M. Millam, M. Klene, J. E. Knox, J. B. Cross, 
 V. Bakken, C. Adamo, J. Jaramillo, R. Gomperts, R. E. Stratmann, 
 O. Yazyev, A. J. Austin, R. Cammi, C. Pomelli, J. W. Ochterski, 
 R. L. Martin, K. Morokuma, V. G. Zakrzewski, G. A. Voth, 
 P. Salvador, J. J. Dannenberg, S. Dapprich, A. D. Daniels, 
 O. Farkas, J. B. Foresman, J. V. Ortiz, J. Cioslowski, 
 and D. J. Fox, Gaussian, Inc., Wallingford CT, 2013.
 
 ******************************************
 Gaussian 09:  EM64L-G09RevD.01 24-Apr-2013
                12-Mar-2019 
 ******************************************
 %mem=7Gb
 %nproc=2
 Will use up to    2 processors via shared memory.
 ----------------------------------------------------------------------
 #PBEPBE/gen scf=(maxcycle=500,conver=4) NMR=GIAO scrf=(solvent=Dichlor
 omethane)
 ----------------------------------------------------------------------
 1/38=1/1;
 2/12=2,17=6,18=5,40=1/2;
 3/5=7,11=2,16=1,25=1,30=1,70=2201,72=9,74=1009/1,2,8,3;
 4//1;
 5/5=2,6=4,7=500,38=5,53=9/2;
 8/6=1,10=90,11=11/1;
 10/13=100,45=16/2;
 6/7=2,8=2,9=2,10=2,28=1/1;
 99/9=1/99;
 Leave Link    1 at Tue Mar 12 22:12:05 2019, MaxMem=   939524096 cpu:         0.1
 (Enter /scr/programas/g09/l101.exe)
 -----------
 estrutura 1
 -----------
 Symbolic Z-matrix:
 Charge =  0 Multiplicity = 1
 Pt                    0.00848  -0.80676  -0.02243 
 Sn(Iso=119)           0.36775   1.74448  -0.03594 
 P                     2.35484  -1.35664  -0.16218 
 P                    -2.39569  -0.54725  -0.01432 
 Cl                    1.91893   2.81238  -1.55864 
 Cl                    1.10631   2.63085   2.08927 
 Cl                   -1.49294   3.26283  -0.3755 
 Cl                   -0.21041  -3.20061   0.35205 
 C                     3.73223  -0.13534  -0.44315 
 H                     3.49798   0.43365  -1.35565 
 H                     4.59215  -0.78683  -0.67952 
 C                     4.0947    0.81434   0.70407 
 H                     3.44482   1.7034    0.72673 
 H                     4.02877   0.32422   1.68694 
 H                     5.13323   1.16684   0.58518 
 C                     2.94772  -2.33332   1.3049 
 H                     2.66083  -3.37862   1.10732 
 H                     4.05218  -2.28903   1.28184 
 C                     2.40136  -1.89369   2.66768 
 H                     2.57364  -0.82843   2.87283 
 H                     1.32137  -2.07655   2.72033 
 H                     2.88459  -2.47398   3.47039 
 C                     2.59239  -2.51284  -1.59112 
 H                     3.6434   -2.8504   -1.55699 
 H                     1.95599  -3.38322  -1.36972 
 C                     2.24445  -1.92875  -2.96337 
 H                     2.40298  -2.69058  -3.74378 
 H                     1.18869  -1.61807  -3.00678 
 H                     2.86502  -1.05643  -3.22159 
 C                    -3.27849  -2.18268   0.00567 
 H                    -2.61522  -2.86303  -0.54395 
 H                    -3.24546  -2.53414   1.04844 
 C                    -4.69621  -2.25826  -0.56529 
 H                    -4.70978  -2.0377   -1.64297 
 H                    -5.0776   -3.28436  -0.44485 
 H                    -5.41077  -1.58538  -0.07143 
 C                    -3.01193   0.30896  -1.55143 
 H                    -3.07319  -0.48503  -2.31462 
 H                    -2.21133   0.98631  -1.8764 
 C                    -4.32667   1.09186  -1.45658 
 H                    -4.6151    1.43618  -2.45949 
 H                    -5.1634    0.49325  -1.06892 
 H                    -4.20834   1.98605  -0.82249 
 C                    -2.97486   0.4183    1.4768 
 H                    -2.17945   0.29311   2.22951 
 H                    -2.95661   1.47833   1.17474 
 C                    -4.33166   0.05644   2.08825 
 H                    -5.16876   0.25036   1.40135 
 H                    -4.37906  -0.99876   2.39717 
 H                    -4.49776   0.66743   2.99016 
 
 NAtoms=     50 NQM=       50 NQMF=       0 NMMI=      0 NMMIF=      0
                NMic=       0 NMicF=      0.
                    Isotopes and Nuclear Properties:
 (Nuclear quadrupole moments (NQMom) in fm**2, nuclear magnetic moments (NMagM)
  in nuclear magnetons)

  Atom         1           2           3           4           5           6           7           8           9          10
 IAtWgt=         195         119          31          31          35          35          35          35          12           1
 AtmWgt= 194.9648000 118.9034000  30.9737634  30.9737634  34.9688527  34.9688527  34.9688527  34.9688527  12.0000000   1.0078250
 NucSpn=           1           1           1           1           3           3           3           3           0           1
 AtZEff=   0.0000000   0.0000000   0.0000000   0.0000000   0.0000000   0.0000000   0.0000000   0.0000000   0.0000000   0.0000000
 NQMom=    0.0000000 -12.8000000   0.0000000   0.0000000  -8.1650000  -8.1650000  -8.1650000  -8.1650000   0.0000000   0.0000000
 NMagM=    0.6095000  -1.0472900   1.1316000   1.1316000   0.8218740   0.8218740   0.8218740   0.8218740   0.0000000   2.7928460
 AtZNuc=  78.0000000  50.0000000  15.0000000  15.0000000  17.0000000  17.0000000  17.0000000  17.0000000   6.0000000   1.0000000

  Atom        11          12          13          14          15          16          17          18          19          20
 IAtWgt=           1          12           1           1           1          12           1           1          12           1
 AtmWgt=   1.0078250  12.0000000   1.0078250   1.0078250   1.0078250  12.0000000   1.0078250   1.0078250  12.0000000   1.0078250
 NucSpn=           1           0           1           1           1           0           1           1           0           1
 AtZEff=   0.0000000   0.0000000   0.0000000   0.0000000   0.0000000   0.0000000   0.0000000   0.0000000   0.0000000   0.0000000
 NQMom=    0.0000000   0.0000000   0.0000000   0.0000000   0.0000000   0.0000000   0.0000000   0.0000000   0.0000000   0.0000000
 NMagM=    2.7928460   0.0000000   2.7928460   2.7928460   2.7928460   0.0000000   2.7928460   2.7928460   0.0000000   2.7928460
 AtZNuc=   1.0000000   6.0000000   1.0000000   1.0000000   1.0000000   6.0000000   1.0000000   1.0000000   6.0000000   1.0000000

  Atom        21          22          23          24          25          26          27          28          29          30
 IAtWgt=           1           1          12           1           1          12           1           1           1          12
 AtmWgt=   1.0078250   1.0078250  12.0000000   1.0078250   1.0078250  12.0000000   1.0078250   1.0078250   1.0078250  12.0000000
 NucSpn=           1           1           0           1           1           0           1           1           1           0
 AtZEff=   0.0000000   0.0000000   0.0000000   0.0000000   0.0000000   0.0000000   0.0000000   0.0000000   0.0000000   0.0000000
 NQMom=    0.0000000   0.0000000   0.0000000   0.0000000   0.0000000   0.0000000   0.0000000   0.0000000   0.0000000   0.0000000
 NMagM=    2.7928460   2.7928460   0.0000000   2.7928460   2.7928460   0.0000000   2.7928460   2.7928460   2.7928460   0.0000000
 AtZNuc=   1.0000000   1.0000000   6.0000000   1.0000000   1.0000000   6.0000000   1.0000000   1.0000000   1.0000000   6.0000000

  Atom        31          32          33          34          35          36          37          38          39          40
 IAtWgt=           1           1          12           1           1           1          12           1           1          12
 AtmWgt=   1.0078250   1.0078250  12.0000000   1.0078250   1.0078250   1.0078250  12.0000000   1.0078250   1.0078250  12.0000000
 NucSpn=           1           1           0           1           1           1           0           1           1           0
 AtZEff=   0.0000000   0.0000000   0.0000000   0.0000000   0.0000000   0.0000000   0.0000000   0.0000000   0.0000000   0.0000000
 NQMom=    0.0000000   0.0000000   0.0000000   0.0000000   0.0000000   0.0000000   0.0000000   0.0000000   0.0000000   0.0000000
 NMagM=    2.7928460   2.7928460   0.0000000   2.7928460   2.7928460   2.7928460   0.0000000   2.7928460   2.7928460   0.0000000
 AtZNuc=   1.0000000   1.0000000   6.0000000   1.0000000   1.0000000   1.0000000   6.0000000   1.0000000   1.0000000   6.0000000

  Atom        41          42          43          44          45          46          47          48          49          50
 IAtWgt=           1           1           1          12           1           1          12           1           1           1
 AtmWgt=   1.0078250   1.0078250   1.0078250  12.0000000   1.0078250   1.0078250  12.0000000   1.0078250   1.0078250   1.0078250
 NucSpn=           1           1           1           0           1           1           0           1           1           1
 AtZEff=   0.0000000   0.0000000   0.0000000   0.0000000   0.0000000   0.0000000   0.0000000   0.0000000   0.0000000   0.0000000
 NQMom=    0.0000000   0.0000000   0.0000000   0.0000000   0.0000000   0.0000000   0.0000000   0.0000000   0.0000000   0.0000000
 NMagM=    2.7928460   2.7928460   2.7928460   0.0000000   2.7928460   2.7928460   0.0000000   2.7928460   2.7928460   2.7928460
 AtZNuc=   1.0000000   1.0000000   1.0000000   6.0000000   1.0000000   1.0000000   6.0000000   1.0000000   1.0000000   1.0000000
 Leave Link  101 at Tue Mar 12 22:12:05 2019, MaxMem=   939524096 cpu:         0.2
 (Enter /scr/programas/g09/l202.exe)
                          Input orientation:                          
 ---------------------------------------------------------------------
 Center     Atomic      Atomic             Coordinates (Angstroms)
 Number     Number       Type             X           Y           Z
 ---------------------------------------------------------------------
      1         78           0        0.008478   -0.806757   -0.022433
      2         50           0        0.367747    1.744482   -0.035943
      3         15           0        2.354835   -1.356642   -0.162179
      4         15           0       -2.395694   -0.547253   -0.014320
      5         17           0        1.918929    2.812377   -1.558637
      6         17           0        1.106312    2.630848    2.089268
      7         17           0       -1.492940    3.262831   -0.375499
      8         17           0       -0.210409   -3.200610    0.352046
      9          6           0        3.732234   -0.135342   -0.443150
     10          1           0        3.497980    0.433648   -1.355649
     11          1           0        4.592147   -0.786829   -0.679515
     12          6           0        4.094699    0.814340    0.704067
     13          1           0        3.444817    1.703402    0.726734
     14          1           0        4.028769    0.324222    1.686937
     15          1           0        5.133226    1.166842    0.585181
     16          6           0        2.947719   -2.333315    1.304898
     17          1           0        2.660831   -3.378616    1.107316
     18          1           0        4.052180   -2.289032    1.281837
     19          6           0        2.401362   -1.893691    2.667683
     20          1           0        2.573638   -0.828429    2.872832
     21          1           0        1.321368   -2.076553    2.720334
     22          1           0        2.884590   -2.473975    3.470393
     23          6           0        2.592386   -2.512839   -1.591121
     24          1           0        3.643404   -2.850401   -1.556989
     25          1           0        1.955994   -3.383224   -1.369720
     26          6           0        2.244449   -1.928748   -2.963365
     27          1           0        2.402978   -2.690577   -3.743777
     28          1           0        1.188688   -1.618066   -3.006781
     29          1           0        2.865020   -1.056429   -3.221589
     30          6           0       -3.278489   -2.182679    0.005667
     31          1           0       -2.615216   -2.863026   -0.543948
     32          1           0       -3.245462   -2.534139    1.048443
     33          6           0       -4.696206   -2.258255   -0.565294
     34          1           0       -4.709783   -2.037702   -1.642965
     35          1           0       -5.077600   -3.284357   -0.444849
     36          1           0       -5.410773   -1.585383   -0.071432
     37          6           0       -3.011928    0.308961   -1.551428
     38          1           0       -3.073187   -0.485032   -2.314621
     39          1           0       -2.211332    0.986311   -1.876395
     40          6           0       -4.326672    1.091862   -1.456584
     41          1           0       -4.615099    1.436182   -2.459485
     42          1           0       -5.163396    0.493250   -1.068920
     43          1           0       -4.208342    1.986047   -0.822489
     44          6           0       -2.974857    0.418299    1.476801
     45          1           0       -2.179446    0.293110    2.229510
     46          1           0       -2.956608    1.478331    1.174735
     47          6           0       -4.331657    0.056440    2.088249
     48          1           0       -5.168760    0.250357    1.401345
     49          1           0       -4.379062   -0.998760    2.397172
     50          1           0       -4.497761    0.667429    2.990163
 ---------------------------------------------------------------------
                    Distance matrix (angstroms):
                    1          2          3          4          5
     1  Pt   0.000000
     2  Sn   2.576447   0.000000
     3  P    2.413979   3.685298   0.000000
     4  P    2.418150   3.590142   4.821255   0.000000
     5  Cl   4.371256   2.421810   4.418238   5.682253   0.000000
     6  Cl   4.181106   2.418190   4.746356   5.175853   3.741726
     7  Cl   4.352064   2.425456   6.015846   3.932195   3.639172
     8  Cl   2.432833   4.993870   3.200800   3.456877   6.658889
     9  C    3.807120   3.875478   1.862189   6.156709   3.636129
    10  H    3.936076   3.641191   2.436450   6.123457   2.862334
    11  H    4.630570   4.966616   2.365986   7.023518   4.568723
    12  C    4.455666   3.911899   2.913876   6.670473   3.721015
    13  H    4.320946   3.170445   3.367803   6.302871   2.963289
    14  H    4.512627   4.288186   3.007755   6.702796   4.601749
    15  H    5.525154   4.840377   3.827006   7.744815   4.199458
    16  C    3.568098   5.008247   1.859494   5.786399   5.977992
    17  H    3.863388   5.728124   2.406996   5.902807   6.781307
    18  H    4.499976   5.619682   2.415681   6.803594   6.216384
    19  C    3.760857   4.968047   2.880747   5.658426   6.343627
    20  H    3.868213   4.466184   3.088394   5.754039   5.772524
    21  H    3.295274   4.806950   3.145665   4.861444   6.524439
    22  H    4.821978   6.035252   3.837272   6.613387   7.359970
    23  C    3.471034   5.048998   1.853402   5.588450   5.367730
    24  H    4.443425   5.844353   2.416034   6.644925   5.919533
    25  H    3.499455   5.531262   2.392543   5.368150   6.198591
    26  C    3.861025   5.058105   2.861142   5.668891   4.955551
    27  H    4.809450   6.128617   3.822243   6.444373   5.940677
    28  H    3.310204   4.561420   3.085450   4.790538   4.717965
    29  H    4.296134   4.922379   3.116152   6.182309   4.316035
    30  C    3.563440   5.359045   5.696038   1.858587   7.376367
    31  H    3.374017   5.512283   5.207336   2.385687   7.334730
    32  H    3.836502   5.704189   5.849396   2.408171   7.877375
    33  C    4.953342   6.476553   7.119873   2.919496   8.393929
    34  H    5.138418   6.532132   7.250200   3.198270   8.214025
    35  H    5.673194   7.423492   7.683559   3.856127   9.346770
    36  H    5.475120   6.669374   7.769506   3.189307   8.676209
    37  C    3.564478   3.972357   5.788471   1.864282   5.529963
    38  H    3.854127   4.690750   5.903908   2.398802   6.030393
    39  H    3.402914   3.257873   5.410901   2.419325   4.527090
    40  C    4.945207   4.947899   7.232786   2.914704   6.479052
    41  H    5.687483   5.549537   7.852226   3.852091   6.737875
    42  H    5.434467   5.764214   7.795388   3.139268   7.468434
    43  H    5.120685   4.649473   7.394922   3.218142   6.226410
    44  C    3.556508   3.901302   5.851691   1.868465   6.236556
    45  H    3.326855   3.704990   5.385310   2.405774   6.123189
    46  H    3.930213   3.547945   6.167320   2.414843   5.746465
    47  C    4.902740   5.426424   7.195165   2.921163   7.743694
    48  H    5.472516   5.911947   7.850575   3.214060   8.096961
    49  H    5.014166   5.998135   7.212747   3.154822   8.356906
    50  H    5.617397   5.830140   7.809750   3.862778   8.152686
                    6          7          8          9         10
     6  Cl   0.000000
     7  Cl   3.637388   0.000000
     8  Cl   6.225560   6.629501   0.000000
     9  C    4.578255   6.233346   5.056940   0.000000
    10  H    4.734471   5.820159   5.465913   1.100581   0.000000
    11  H    5.612283   7.315768   5.473116   1.104425   1.773111
    12  C    3.761508   6.195343   5.897262   1.532770   2.177942
    13  H    2.860989   5.294165   6.127838   2.198230   2.439553
    14  H    3.744749   6.586223   5.672478   2.199182   3.090476
    15  H    4.541104   7.015850   6.905319   2.171618   2.641671
    16  C    5.352470   7.338940   3.410850   2.915857   3.877806
    17  H    6.284458   7.972539   2.974246   3.751090   4.615233
    18  H    5.790967   8.019869   4.457034   2.777828   3.830986
    19  C    4.741642   7.142567   3.727138   3.813174   4.775592
    20  H    3.838439   6.620205   4.442130   3.580286   4.508580
    21  H    4.754379   6.783328   3.036220   4.425857   5.258554
    22  H    5.579337   8.177078   4.453213   4.637189   5.667557
    23  C    6.497014   7.178161   3.479165   2.875688   3.091494
    24  H    7.055219   8.071527   4.314966   2.935996   3.293427
    25  H    6.989679   7.553388   2.773288   3.816058   4.116604
    26  C    6.900317   6.900552   4.316933   3.432389   3.120418
    27  H    8.001457   7.871883   4.885252   4.380672   4.082030
    28  H    6.635493   6.159377   3.967825   3.903883   3.502656
    29  H    6.700318   6.763731   5.179444   3.052898   2.470364
    30  C    6.836513   5.743436   3.251042   7.317326   7.390459
    31  H    7.139065   6.230088   2.588410   6.909453   6.992716
    32  H    6.833619   6.221238   3.184446   7.527770   7.749931
    33  C    8.038610   6.385869   4.674604   8.692542   8.661160
    34  H    8.339777   6.328523   5.057350   8.736486   8.576567
    35  H    8.924806   7.464601   4.932708   9.355719   9.391150
    36  H    8.057147   6.240757   5.461875   9.264738   9.224510
    37  C    5.967053   3.523561   4.877377   6.849044   6.514045
    38  H    6.824306   4.505980   4.762455   7.066714   6.704016
    39  H    5.425656   2.819808   5.147810   6.215969   5.759588
    40  C    6.667748   3.729864   6.216114   8.214563   7.852937
    41  H    7.406276   4.174628   6.986118   8.730021   8.248974
    42  H    7.338441   4.650125   6.340018   8.939740   8.666326
    43  H    6.094230   3.033708   6.653150   8.227815   7.879188
    44  C    4.682567   3.703843   4.690815   6.998414   7.065453
    45  H    4.034959   4.009564   4.428099   6.501895   6.716121
    46  H    4.321109   2.780286   5.487341   7.068387   7.011128
    47  C    6.016567   4.940578   5.532401   8.454058   8.561889
    48  H    6.746592   5.073837   6.131513   9.098276   9.096537
    49  H    6.584693   5.846243   5.138906   8.637479   8.842129
    50  H    6.006019   5.205069   6.348447   8.953485   9.103439
                   11         12         13         14         15
    11  H    0.000000
    12  C    2.173821   0.000000
    13  H    3.081421   1.101495   0.000000
    14  H    2.674308   1.100271   1.779080   0.000000
    15  H    2.389362   1.103145   1.777262   1.773048   0.000000
    16  C    3.005604   3.403571   4.108097   2.894326   4.188739
    17  H    3.693251   4.449659   5.156199   3.989765   5.200630
    18  H    2.528850   3.156983   4.076341   2.644570   3.687418
    19  C    4.150713   3.749215   4.218431   2.920523   4.600734
    20  H    4.085986   3.117027   3.431451   2.202807   3.970635
    21  H    4.890844   4.484859   4.771953   3.763197   5.441392
    22  H    4.794158   4.464296   5.029115   3.509953   5.161043
    23  C    2.794491   4.312186   4.886285   4.567031   4.973149
    24  H    2.434831   4.329708   5.098230   4.555194   4.790272
    25  H    3.763901   5.147251   5.699603   5.233040   5.883837
    26  C    3.468665   4.939435   5.315094   5.466716   5.524481
    27  H    4.219765   5.910134   6.354365   6.420659   6.408885
    28  H    4.206026   5.303951   5.482828   5.819754   6.018080
    29  H    3.085092   4.519144   4.852019   5.230118   4.957740
    30  C    8.022767   7.989605   7.799000   7.906152   9.072600
    31  H    7.501670   7.752646   7.693562   7.699216   8.806425
    32  H    8.213833   8.075201   7.925912   7.841705   9.171384
    33  C    9.404873   9.398517   9.145508   9.373736  10.472469
    34  H    9.434979   9.547859   9.279485   9.645166  10.588605
    35  H    9.989831  10.111894   9.943940  10.024585  11.186380
    36  H   10.053152   9.834331   9.480224   9.789965  10.917042
    37  C    7.731943   7.473073   6.987420   7.749752   8.464313
    38  H    7.843596   7.885394   7.518209   8.191773   8.859049
    39  H    7.131891   6.815745   6.267577   7.216270   7.748192
    40  C    9.147603   8.698559   8.095486   8.960156   9.678021
    41  H    9.637606   9.287375   8.670966   9.651203  10.216280
    42  H    9.846870   9.431803   8.876383   9.597876  10.450368
    43  H    9.228103   8.523131   7.813503   8.769771   9.482485
    44  C    7.959999   7.122681   6.589864   7.007409   8.191234
    45  H    7.448702   6.477928   5.989958   6.231957   7.546019
    46  H    8.096474   7.098122   6.421028   7.098578   8.117266
    47  C    9.381146   8.572855   8.064723   8.374335   9.647602
    48  H   10.033994   9.306769   8.761287   9.202258  10.374825
    49  H    9.486491   8.829415   8.444236   8.540863   9.922538
    50  H    9.909986   8.892592   8.323515   8.632375   9.939279
                   16         17         18         19         20
    16  C    0.000000
    17  H    1.101816   0.000000
    18  H    1.105589   1.775810   0.000000
    19  C    1.532631   2.169579   2.191361   0.000000
    20  H    2.205229   3.102918   2.617387   1.098430   0.000000
    21  H    2.171268   2.468067   3.093825   1.096630   1.774612
    22  H    2.170977   2.540192   2.487418   1.102081   1.778087
    23  C    2.923254   2.834752   3.230321   4.307812   4.771212
    24  H    2.990276   2.888422   2.922527   4.506197   4.985588
    25  H    3.039640   2.575369   3.552746   4.326394   4.990762
    26  C    4.344690   4.341191   4.628114   5.633343   5.948131
    27  H    5.090530   4.906423   5.304517   6.460793   6.875772
    28  H    4.711300   4.710895   5.200195   5.809138   6.091918
    29  H    4.703867   4.916672   4.817624   5.966533   6.105641
    30  C    6.362103   6.157874   7.441682   6.279375   6.655976
    31  H    5.886006   5.552403   6.936651   6.034918   6.537444
    32  H    6.201741   5.966649   7.305486   5.909207   6.332438
    33  C    7.869742   7.627505   8.941314   7.807722   8.167971
    34  H    8.210641   7.980479   9.240651   8.316899   8.654651
    35  H    8.268727   7.893125   9.344785   8.219287   8.693678
    36  H    8.504003   8.352001   9.585089   8.284157   8.543564
    37  C    7.117416   7.269617   8.042299   7.208071   7.215697
    38  H    7.264185   7.277461   8.182896   7.535142   7.675560
    39  H    6.910597   7.189791   7.741698   7.086607   6.981717
    40  C    8.501434   8.682393   9.441110   8.437390   8.369327
    41  H    9.250724   9.425683  10.148716   9.306268   9.232552
    42  H    8.911491   8.996993   9.909288   8.768424   8.783276
    43  H    8.625072   8.926886   9.536284   8.421511   8.220214
    44  C    6.532828   6.805444   7.533054   5.972205   5.855684
    45  H    5.834453   6.178120   6.811659   5.094889   4.925802
    46  H    7.028987   7.426311   7.957864   6.504404   6.228025
    47  C    7.701551   7.852180   8.743012   7.033655   7.005831
    48  H    8.518327   8.634720   9.564963   7.969147   7.954482
    49  H    7.527006   7.542383   8.602012   6.844576   6.971033
    50  H    8.202424   8.435700   9.206548   7.366222   7.228834
                   21         22         23         24         25
    21  H    0.000000
    22  H    1.778819   0.000000
    23  C    4.516024   5.070090   0.000000
    24  H    4.928101   5.098241   1.104424   0.000000
    25  H    4.340355   5.011558   1.100719   1.779416   0.000000
    26  C    5.760066   6.488474   1.531429   2.187330   2.176789
    27  H    6.582677   7.233472   2.168270   2.519175   2.513106
    28  H    5.746970   6.749996   2.185196   3.105830   2.526759
    29  H    6.223340   6.840500   2.203153   2.568095   3.109618
    30  C    5.342225   7.076208   6.093104   7.127436   5.543718
    31  H    5.174048   6.820129   5.323375   6.340090   4.674234
    32  H    4.884725   6.591434   6.406889   7.371891   5.798586
    33  C    6.858539   8.590796   7.364829   8.419216   6.794440
    34  H    7.444103   9.165766   7.317794   8.393069   6.805709
    35  H    7.240440   8.909675   7.793450   8.802334   7.094829
    36  H    7.304583   9.063507   8.198792   9.262034   7.693311
    37  C    6.535754   8.229966   6.274748   7.367160   6.192374
    38  H    6.869922   8.539168   6.060872   7.161115   5.880903
    39  H    6.556754   8.156601   5.949886   7.007162   6.059386
    40  C    7.706222   9.433589   7.802905   8.892335   7.714002
    41  H    8.626208  10.329478   8.264180   9.348378   8.221528
    42  H    7.938167   9.704631   8.334352   9.432812   8.111920
    43  H    7.722306   9.414368   8.190279   9.250980   8.193142
    44  C    5.121348   6.831748   6.999851   7.980580   6.845988
    45  H    4.255809   5.902627   6.726139   7.623963   6.600890
    46  H    5.772968   7.416897   7.373651   8.352269   7.364959
    47  C    6.075021   7.770942   8.251141   9.237915   7.957600
    48  H    7.019687   8.749822   8.765015   9.799014   8.464268
    49  H    5.810419   7.489239   8.173127   9.133670   7.746488
    50  H    6.439294   8.037297   9.020668   9.966458   8.778800
                   26         27         28         29         30
    26  C    0.000000
    27  H    1.102070   0.000000
    28  H    1.101381   1.779872   0.000000
    29  H    1.101240   1.776683   1.780918   0.000000
    30  C    6.275546   6.826079   5.417500   7.030386   0.000000
    31  H    5.508430   5.954067   4.699485   6.361332   1.097670
    32  H    6.826436   7.409097   6.078299   7.599657   1.100907
    33  C    7.350647   7.790255   6.403333   8.103853   1.530238
    34  H    7.079313   7.445202   6.068612   7.799525   2.188060
    35  H    7.860852   8.197228   6.971828   8.703974   2.157188
    36  H    8.190458   8.704153   7.222896   8.870853   2.215703
    37  C    5.884761   6.566950   4.845272   6.260371   2.950232
    38  H    5.548192   6.074150   4.463903   6.034185   2.882341
    39  H    5.434433   6.188576   4.429525   5.634863   3.837119
    40  C    7.387429   8.051477   6.337666   7.710436   3.736239
    41  H    7.657026   8.242145   6.581178   7.921243   4.578172
    42  H    8.020671   8.633749   6.968639   8.455232   3.445027
    43  H    7.845220   8.608966   6.847532   8.065035   4.350718
    44  C    7.243263   8.114225   6.448597   7.638969   3.003584
    45  H    7.174500   8.098219   6.512731   7.548667   3.504697
    46  H    7.468805   8.384314   6.652536   7.722954   3.856595
    47  C    8.526720   9.322765   7.696591   9.012492   3.234187
    48  H    8.874393   9.615227   7.958626   9.360600   3.382411
    49  H    8.571530   9.304277   7.783707   9.167907   2.886559
    50  H    9.361732  10.209914   8.574528   9.786117   4.303133
                   31         32         33         34         35
    31  H    0.000000
    32  H    1.743871   0.000000
    33  C    2.167192   2.187445   0.000000
    34  H    2.505236   3.103927   1.100092   0.000000
    35  H    2.500135   2.479814   1.101296   1.767744   0.000000
    36  H    3.109788   2.615880   1.098755   1.779240   1.771146
    37  C    3.351701   3.859674   3.224880   2.897916   4.289924
    38  H    2.999979   3.941918   2.972988   2.353795   3.917900
    39  H    4.093401   4.692299   4.291945   3.929555   5.338860
    40  C    4.404898   4.537847   3.486293   3.158430   4.553987
    41  H    5.113903   5.472195   4.152518   3.569810   5.153266
    42  H    4.246576   4.162545   2.835963   2.634580   3.829770
    43  H    5.111667   4.985941   4.279984   4.137050   5.354940
    44  C    3.870383   2.995598   3.781155   4.332995   4.671609
    45  H    4.224116   3.244171   4.544719   5.179899   5.324450
    46  H    4.681645   4.024836   4.473922   4.834826   5.459382
    47  C    4.289279   2.995349   3.540056   4.295389   4.258397
    48  H    4.471902   3.402504   3.222439   3.835844   3.988853
    49  H    3.903438   2.336987   3.234674   4.184672   3.713353
    50  H    5.338354   3.948236   4.608718   5.369224   5.268029
                   36         37         38         39         40
    36  H    0.000000
    37  C    3.396084   0.000000
    38  H    3.421546   1.103015   0.000000
    39  H    4.484186   1.097889   1.760593   0.000000
    40  C    3.203367   1.533128   2.189531   2.159177   0.000000
    41  H    3.932652   2.159943   2.467700   2.514055   1.098889
    42  H    2.318813   2.212598   2.622552   3.099969   1.099421
    43  H    3.842530   2.185263   3.101817   2.469461   1.102563
    44  C    3.513610   3.030429   3.898789   3.485618   3.299369
    45  H    4.389139   3.871533   4.696105   4.164133   4.340031
    46  H    4.118519   2.966893   4.005495   3.179137   2.991701
    47  C    2.919640   3.879781   4.611096   4.591170   3.692961
    48  H    2.365921   3.657079   4.329045   4.475666   3.095965
    49  H    2.739080   4.378428   4.916322   5.186804   4.384619
    50  H    3.909235   4.791894   5.612336   5.386356   4.470232
                   41         42         43         44         45
    41  H    0.000000
    42  H    1.767320   0.000000
    43  H    1.774136   1.789218   0.000000
    44  C    4.384156   3.357978   3.044019   0.000000
    45  H    5.406079   4.452376   4.036973   1.102235   0.000000
    46  H    3.994987   3.297618   2.411124   1.102381   1.766714
    47  C    4.760873   3.293981   3.494422   1.531573   2.169788
    48  H    4.076608   2.482184   2.980010   2.201615   3.102206
    49  H    5.437993   3.854227   4.393681   2.197028   2.556433
    50  H    5.504854   4.116985   4.044605   2.161381   2.468459
                   46         47         48         49         50
    46  H    0.000000
    47  C    2.178771   0.000000
    48  H    2.540254   1.100083   0.000000
    49  H    3.107042   1.100512   1.782018   0.000000
    50  H    2.515650   1.101974   1.774410   1.772544   0.000000
 Stoichiometry    C12H30Cl4P2PtSn
 Framework group  C1[X(C12H30Cl4P2PtSn)]
 Deg. of freedom   144
 Full point group                 C1      NOp   1
 Largest Abelian subgroup         C1      NOp   1
 Largest concise Abelian subgroup C1      NOp   1
                         Standard orientation:                         
 ---------------------------------------------------------------------
 Center     Atomic      Atomic             Coordinates (Angstroms)
 Number     Number       Type             X           Y           Z
 ---------------------------------------------------------------------
      1         78           0        0.008478   -0.806757   -0.022433
      2         50           0        0.367747    1.744482   -0.035943
      3         15           0        2.354835   -1.356642   -0.162179
      4         15           0       -2.395694   -0.547253   -0.014320
      5         17           0        1.918929    2.812377   -1.558637
      6         17           0        1.106312    2.630848    2.089268
      7         17           0       -1.492940    3.262831   -0.375499
      8         17           0       -0.210409   -3.200610    0.352046
      9          6           0        3.732234   -0.135342   -0.443150
     10          1           0        3.497980    0.433648   -1.355649
     11          1           0        4.592147   -0.786829   -0.679515
     12          6           0        4.094699    0.814340    0.704067
     13          1           0        3.444817    1.703402    0.726734
     14          1           0        4.028769    0.324222    1.686937
     15          1           0        5.133226    1.166842    0.585181
     16          6           0        2.947719   -2.333315    1.304898
     17          1           0        2.660831   -3.378616    1.107316
     18          1           0        4.052180   -2.289032    1.281837
     19          6           0        2.401362   -1.893691    2.667683
     20          1           0        2.573638   -0.828429    2.872832
     21          1           0        1.321368   -2.076553    2.720334
     22          1           0        2.884590   -2.473975    3.470393
     23          6           0        2.592386   -2.512839   -1.591121
     24          1           0        3.643404   -2.850401   -1.556989
     25          1           0        1.955994   -3.383224   -1.369720
     26          6           0        2.244449   -1.928748   -2.963365
     27          1           0        2.402978   -2.690577   -3.743777
     28          1           0        1.188688   -1.618066   -3.006781
     29          1           0        2.865020   -1.056429   -3.221589
     30          6           0       -3.278489   -2.182679    0.005667
     31          1           0       -2.615216   -2.863026   -0.543948
     32          1           0       -3.245462   -2.534139    1.048443
     33          6           0       -4.696206   -2.258255   -0.565294
     34          1           0       -4.709783   -2.037702   -1.642965
     35          1           0       -5.077600   -3.284357   -0.444849
     36          1           0       -5.410773   -1.585383   -0.071432
     37          6           0       -3.011928    0.308961   -1.551428
     38          1           0       -3.073187   -0.485032   -2.314621
     39          1           0       -2.211332    0.986311   -1.876395
     40          6           0       -4.326672    1.091862   -1.456584
     41          1           0       -4.615099    1.436182   -2.459485
     42          1           0       -5.163396    0.493250   -1.068920
     43          1           0       -4.208342    1.986047   -0.822489
     44          6           0       -2.974857    0.418299    1.476801
     45          1           0       -2.179446    0.293110    2.229510
     46          1           0       -2.956608    1.478331    1.174735
     47          6           0       -4.331657    0.056440    2.088249
     48          1           0       -5.168760    0.250357    1.401345
     49          1           0       -4.379062   -0.998760    2.397172
     50          1           0       -4.497761    0.667429    2.990163
 ---------------------------------------------------------------------
 Rotational constants (GHZ):      0.1665239      0.1431138      0.0999030
 Leave Link  202 at Tue Mar 12 22:12:05 2019, MaxMem=   939524096 cpu:         0.0
 (Enter /scr/programas/g09/l301.exe)
 General basis read from cards:  (5D, 7F)
 Centers:      10     11     13     14     15     17     18     20     21     22
 Centers:      24     25     27     28     29     31     32     34     35     36
 Centers:      38     39     41     42     43     45     46     48     49     50
 S 5 1.00
     Exponent=  2.8295215633D+02 Coefficients=  4.3000000000D-04
     Exponent=  8.7062201949D+01 Coefficients=  5.1000000000D-04
     Exponent=  2.6788369830D+01 Coefficients=  6.1600000000D-03
     Exponent=  8.2425753324D+00 Coefficients=  1.3030000000D-02
     Exponent=  2.5361770254D+00 Coefficients=  9.9490000000D-02
 S 1 1.00
     Exponent=  7.8036216165D-01 Coefficients=  1.0000000000D+00
 S 1 1.00
     Exponent=  2.4011143435D-01 Coefficients=  1.0000000000D+00
 P 1 1.00
     Exponent=  8.8150000000D-01 Coefficients=  1.0000000000D+00
 P 1 1.00
     Exponent=  1.7989200000D-01 Coefficients=  1.0000000000D+00
 ****
 Centers:       9     12     16     19     23     26     30     33     37     40
 Centers:      44     47
 S 6 1.00
     Exponent=  8.8461235339D+03 Coefficients=  5.3000000000D-04
     Exponent=  2.9487078446D+03 Coefficients=  7.7000000000D-04
     Exponent=  9.8290261488D+02 Coefficients=  4.0500000000D-03
     Exponent=  3.2763420496D+02 Coefficients=  1.4030000000D-02
     Exponent=  1.0921140165D+02 Coefficients=  5.3450000000D-02
     Exponent=  3.6403800551D+01 Coefficients=  1.7027000000D-01
 S 1 1.00
     Exponent=  1.2134600184D+01 Coefficients=  1.0000000000D+00
 S 1 1.00
     Exponent=  4.0448667279D+00 Coefficients=  1.0000000000D+00
 S 1 1.00
     Exponent=  1.3482889093D+00 Coefficients=  1.0000000000D+00
 S 1 1.00
     Exponent=  4.4942963643D-01 Coefficients=  1.0000000000D+00
 S 1 1.00
     Exponent=  1.4980987881D-01 Coefficients=  1.0000000000D+00
 P 4 1.00
     Exponent=  3.7294093393D+01 Coefficients=  3.9600000000D-03
     Exponent=  1.1475105659D+01 Coefficients=  1.8890000000D-02
     Exponent=  3.5308017414D+00 Coefficients=  9.4610000000D-02
     Exponent=  1.0864005358D+00 Coefficients=  3.1889000000D-01
 P 1 1.00
     Exponent=  3.3427708794D-01 Coefficients=  1.0000000000D+00
 P 1 1.00
     Exponent=  1.0285448860D-01 Coefficients=  1.0000000000D+00
 D 1 1.00
     Exponent=  4.7750000000D-01 Coefficients=  1.0000000000D+00
 D 1 1.00
     Exponent=  1.1998000000D-01 Coefficients=  1.0000000000D+00
 ****
 Centers:       3      4
 S 7 1.00
     Exponent=  5.9538004301D+04 Coefficients=  9.5000000000D-04
     Exponent=  2.1650183382D+04 Coefficients=  6.1000000000D-04
     Exponent=  7.8727939572D+03 Coefficients=  3.7500000000D-03
     Exponent=  2.8628341663D+03 Coefficients=  9.6300000000D-03
     Exponent=  1.0410306059D+03 Coefficients=  3.2430000000D-02
     Exponent=  3.7855658397D+02 Coefficients=  9.9500000000D-02
     Exponent=  1.3765693962D+02 Coefficients=  2.6570000000D-01
 S 1 1.00
     Exponent=  5.0057068954D+01 Coefficients=  1.0000000000D+00
 S 1 1.00
     Exponent=  1.8202570529D+01 Coefficients=  1.0000000000D+00
 S 1 1.00
     Exponent=  6.6191165560D+00 Coefficients=  1.0000000000D+00
 S 1 1.00
     Exponent=  2.4069514749D+00 Coefficients=  1.0000000000D+00
 S 1 1.00
     Exponent=  8.7525508178D-01 Coefficients=  1.0000000000D+00
 S 1 1.00
     Exponent=  3.1827457519D-01 Coefficients=  1.0000000000D+00
 S 1 1.00
     Exponent=  1.1573620916D-01 Coefficients=  1.0000000000D+00
 S 1 1.00
     Exponent=  4.2085894240D-02 Coefficients=  1.0000000000D+00
 P 5 1.00
     Exponent=  4.8799672315D+02 Coefficients=  2.1600000000D-03
     Exponent=  1.6266557438D+02 Coefficients=  9.7900000000D-03
     Exponent=  5.4221858128D+01 Coefficients=  5.4850000000D-02
     Exponent=  1.8073952709D+01 Coefficients=  2.1770000000D-01
     Exponent=  6.0246509031D+00 Coefficients=  4.8978000000D-01
 P 1 1.00
     Exponent=  2.0082169677D+00 Coefficients=  1.0000000000D+00
 P 1 1.00
     Exponent=  6.6940565590D-01 Coefficients=  1.0000000000D+00
 P 1 1.00
     Exponent=  2.2313521863D-01 Coefficients=  1.0000000000D+00
 P 1 1.00
     Exponent=  7.4378406211D-02 Coefficients=  1.0000000000D+00
 P 1 1.00
     Exponent=  2.4792802070D-02 Coefficients=  1.0000000000D+00
 D 1 1.00
     Exponent=  3.5395000000D-01 Coefficients=  1.0000000000D+00
 D 1 1.00
     Exponent=  8.9098000000D-02 Coefficients=  1.0000000000D+00
 ****
 Centers:       5      6      7      8
 S 7 1.00
     Exponent=  7.7142817164D+04 Coefficients=  1.0600000000D-03
     Exponent=  2.8051933514D+04 Coefficients=  6.4000000000D-04
     Exponent=  1.0200703096D+04 Coefficients=  3.9600000000D-03
     Exponent=  3.7093465804D+03 Coefficients=  9.8300000000D-03
     Exponent=  1.3488533020D+03 Coefficients=  3.2690000000D-02
     Exponent=  4.9049210981D+02 Coefficients=  9.9520000000D-02
     Exponent=  1.7836076720D+02 Coefficients=  2.6555000000D-01
 S 1 1.00
     Exponent=  6.4858460801D+01 Coefficients=  1.0000000000D+00
 S 1 1.00
     Exponent=  2.3584894837D+01 Coefficients=  1.0000000000D+00
 S 1 1.00
     Exponent=  8.5763253951D+00 Coefficients=  1.0000000000D+00
 S 1 1.00
     Exponent=  3.1186637801D+00 Coefficients=  1.0000000000D+00
 S 1 1.00
     Exponent=  1.1340595564D+00 Coefficients=  1.0000000000D+00
 S 1 1.00
     Exponent=  4.1238529323D-01 Coefficients=  1.0000000000D+00
 S 1 1.00
     Exponent=  1.4995828845D-01 Coefficients=  1.0000000000D+00
 S 1 1.00
     Exponent=  5.4530286708D-02 Coefficients=  1.0000000000D+00
 P 5 1.00
     Exponent=  6.9498536057D+02 Coefficients=  2.0000000000D-03
     Exponent=  2.3166178686D+02 Coefficients=  8.9500000000D-03
     Exponent=  7.7220595619D+01 Coefficients=  5.1130000000D-02
     Exponent=  2.5740198540D+01 Coefficients=  2.1011000000D-01
     Exponent=  8.5800661799D+00 Coefficients=  4.9738000000D-01
 P 1 1.00
     Exponent=  2.8600220600D+00 Coefficients=  1.0000000000D+00
 P 1 1.00
     Exponent=  9.5334068665D-01 Coefficients=  1.0000000000D+00
 P 1 1.00
     Exponent=  3.1778022888D-01 Coefficients=  1.0000000000D+00
 P 1 1.00
     Exponent=  1.0592674296D-01 Coefficients=  1.0000000000D+00
 P 1 1.00
     Exponent=  3.5308914320D-02 Coefficients=  1.0000000000D+00
 D 1 1.00
     Exponent=  5.5696000000D-01 Coefficients=  1.0000000000D+00
 D 1 1.00
     Exponent=  1.5619100000D-01 Coefficients=  1.0000000000D+00
 ****
 Centers:       2
 S 8 1.00
     Exponent=  7.5448214551D+05 Coefficients=  4.4300000000D-03
     Exponent=  3.3532539800D+05 Coefficients=  1.9800000000D-03
     Exponent=  1.4903351022D+05 Coefficients=  9.0500000000D-03
     Exponent=  6.6237115655D+04 Coefficients=  4.8700000000D-03
     Exponent=  2.9438718069D+04 Coefficients=  2.0770000000D-02
     Exponent=  1.3083874697D+04 Coefficients=  3.2900000000D-02
     Exponent=  5.8150554210D+03 Coefficients=  7.7010000000D-02
     Exponent=  2.5844690760D+03 Coefficients=  1.5160000000D-01
 S 1 1.00
     Exponent=  1.1486529227D+03 Coefficients=  1.0000000000D+00
 S 1 1.00
     Exponent=  5.1051241008D+02 Coefficients=  1.0000000000D+00
 S 1 1.00
     Exponent=  2.2689440448D+02 Coefficients=  1.0000000000D+00
 S 1 1.00
     Exponent=  1.0084195755D+02 Coefficients=  1.0000000000D+00
 S 1 1.00
     Exponent=  4.4818647798D+01 Coefficients=  1.0000000000D+00
 S 1 1.00
     Exponent=  1.9919399021D+01 Coefficients=  1.0000000000D+00
 S 1 1.00
     Exponent=  8.8530662317D+00 Coefficients=  1.0000000000D+00
 S 1 1.00
     Exponent=  3.9346961030D+00 Coefficients=  1.0000000000D+00
 S 1 1.00
     Exponent=  1.7487538235D+00 Coefficients=  1.0000000000D+00
 S 1 1.00
     Exponent=  7.7722392158D-01 Coefficients=  1.0000000000D+00
 S 1 1.00
     Exponent=  3.4543285403D-01 Coefficients=  1.0000000000D+00
 S 1 1.00
     Exponent=  1.5352571290D-01 Coefficients=  1.0000000000D+00
 S 1 1.00
     Exponent=  6.8233650180D-02 Coefficients=  1.0000000000D+00
 S 1 1.00
     Exponent=  1.3478251887D-02 Coefficients=  1.0000000000D+00
 P 5 1.00
     Exponent=  1.0090658304D+04 Coefficients=  2.7500000000D-03
     Exponent=  4.0362633217D+03 Coefficients=  4.1800000000D-03
     Exponent=  1.6145053287D+03 Coefficients=  2.0890000000D-02
     Exponent=  6.4580213147D+02 Coefficients=  7.1370000000D-02
     Exponent=  2.5832085259D+02 Coefficients=  2.2613000000D-01
 P 1 1.00
     Exponent=  1.0332834104D+02 Coefficients=  1.0000000000D+00
 P 1 1.00
     Exponent=  4.1331336414D+01 Coefficients=  1.0000000000D+00
 P 1 1.00
     Exponent=  1.6532534566D+01 Coefficients=  1.0000000000D+00
 P 1 1.00
     Exponent=  6.6130138263D+00 Coefficients=  1.0000000000D+00
 P 1 1.00
     Exponent=  2.6452055305D+00 Coefficients=  1.0000000000D+00
 P 1 1.00
     Exponent=  1.0580822122D+00 Coefficients=  1.0000000000D+00
 P 1 1.00
     Exponent=  4.2323288488D-01 Coefficients=  1.0000000000D+00
 P 1 1.00
     Exponent=  1.6929315395D-01 Coefficients=  1.0000000000D+00
 P 1 1.00
     Exponent=  6.7717261581D-02 Coefficients=  1.0000000000D+00
 P 1 1.00
     Exponent=  2.7086904632D-02 Coefficients=  1.0000000000D+00
 P 1 1.00
     Exponent=  1.0834761853D-02 Coefficients=  1.0000000000D+00
 D 4 1.00
     Exponent=  5.5430250651D+02 Coefficients=  4.3700000000D-03
     Exponent=  2.0156454782D+02 Coefficients=  2.5110000000D-02
     Exponent=  7.3296199207D+01 Coefficients=  1.3316000000D-01
     Exponent=  2.6653163348D+01 Coefficients=  3.8900000000D-01
 D 1 1.00
     Exponent=  9.6920593993D+00 Coefficients=  1.0000000000D+00
 D 1 1.00
     Exponent=  3.5243852361D+00 Coefficients=  1.0000000000D+00
 D 1 1.00
     Exponent=  1.2815946313D+00 Coefficients=  1.0000000000D+00
 D 1 1.00
     Exponent=  4.6603441139D-01 Coefficients=  1.0000000000D+00
 D 1 1.00
     Exponent=  1.6946705869D-01 Coefficients=  1.0000000000D+00
 F 1 1.00
     Exponent=  1.3140000000D+00 Coefficients=  1.0000000000D+00
 F 1 1.00
     Exponent=  1.9993000000D-01 Coefficients=  1.0000000000D+00
 ****
 Centers:       1
 S 9 1.00
     Exponent=  2.1644816090D+06 Coefficients=  1.2320000000D-02
     Exponent=  1.0822408045D+06 Coefficients=  1.2970000000D-02
     Exponent=  5.4112040224D+05 Coefficients=  2.6370000000D-02
     Exponent=  2.7056020112D+05 Coefficients=  9.0400000000D-03
     Exponent=  1.3528010056D+05 Coefficients=  3.4980000000D-02
     Exponent=  6.7640050280D+04 Coefficients=  1.2220000000D-02
     Exponent=  3.3820025140D+04 Coefficients=  6.0520000000D-02
     Exponent=  1.6910012570D+04 Coefficients=  6.4930000000D-02
     Exponent=  8.4550062850D+03 Coefficients=  1.3819000000D-01
 S 1 1.00
     Exponent=  4.2275031425D+03 Coefficients=  1.0000000000D+00
 S 1 1.00
     Exponent=  2.1137515713D+03 Coefficients=  1.0000000000D+00
 S 1 1.00
     Exponent=  1.0568757856D+03 Coefficients=  1.0000000000D+00
 S 1 1.00
     Exponent=  5.2843789281D+02 Coefficients=  1.0000000000D+00
 S 1 1.00
     Exponent=  2.6421894641D+02 Coefficients=  1.0000000000D+00
 S 1 1.00
     Exponent=  1.3210947320D+02 Coefficients=  1.0000000000D+00
 S 1 1.00
     Exponent=  6.6054736602D+01 Coefficients=  1.0000000000D+00
 S 1 1.00
     Exponent=  3.3027368301D+01 Coefficients=  1.0000000000D+00
 S 1 1.00
     Exponent=  1.6513684150D+01 Coefficients=  1.0000000000D+00
 S 1 1.00
     Exponent=  8.2568420752D+00 Coefficients=  1.0000000000D+00
 S 1 1.00
     Exponent=  4.1284210376D+00 Coefficients=  1.0000000000D+00
 S 1 1.00
     Exponent=  2.0642105188D+00 Coefficients=  1.0000000000D+00
 S 1 1.00
     Exponent=  1.0321052594D+00 Coefficients=  1.0000000000D+00
 S 1 1.00
     Exponent=  5.1605262970D-01 Coefficients=  1.0000000000D+00
 S 1 1.00
     Exponent=  2.5802631485D-01 Coefficients=  1.0000000000D+00
 S 1 1.00
     Exponent=  1.2901315743D-01 Coefficients=  1.0000000000D+00
 S 1 1.00
     Exponent=  6.4506578713D-02 Coefficients=  1.0000000000D+00
 P 7 1.00
     Exponent=  3.2357915258D+04 Coefficients=  5.0200000000D-03
     Exponent=  1.4381295670D+04 Coefficients=  2.0200000000D-03
     Exponent=  6.3916869645D+03 Coefficients=  1.8070000000D-02
     Exponent=  2.8407497620D+03 Coefficients=  3.6620000000D-02
     Exponent=  1.2625554498D+03 Coefficients=  1.1172000000D-01
     Exponent=  5.6113575545D+02 Coefficients=  2.5586000000D-01
     Exponent=  2.4939366909D+02 Coefficients=  4.2608000000D-01
 P 1 1.00
     Exponent=  1.1084163071D+02 Coefficients=  1.0000000000D+00
 P 1 1.00
     Exponent=  4.9262946981D+01 Coefficients=  1.0000000000D+00
 P 1 1.00
     Exponent=  2.1894643103D+01 Coefficients=  1.0000000000D+00
 P 1 1.00
     Exponent=  9.7309524900D+00 Coefficients=  1.0000000000D+00
 P 1 1.00
     Exponent=  4.3248677733D+00 Coefficients=  1.0000000000D+00
 P 1 1.00
     Exponent=  1.9221634548D+00 Coefficients=  1.0000000000D+00
 P 1 1.00
     Exponent=  8.5429486881D-01 Coefficients=  1.0000000000D+00
 P 1 1.00
     Exponent=  3.7968660836D-01 Coefficients=  1.0000000000D+00
 P 1 1.00
     Exponent=  1.6874960372D-01 Coefficients=  1.0000000000D+00
 P 1 1.00
     Exponent=  7.4999823874D-02 Coefficients=  1.0000000000D+00
 P 1 1.00
     Exponent=  3.3333255055D-02 Coefficients=  1.0000000000D+00
 D 5 1.00
     Exponent=  1.9119003508D+03 Coefficients=  4.3300000000D-03
     Exponent=  7.6476014031D+02 Coefficients=  1.7780000000D-02
     Exponent=  3.0590405613D+02 Coefficients=  8.9710000000D-02
     Exponent=  1.2236162245D+02 Coefficients=  3.1123000000D-01
     Exponent=  4.8944648980D+01 Coefficients=  5.3206000000D-01
 D 1 1.00
     Exponent=  1.9577859592D+01 Coefficients=  1.0000000000D+00
 D 1 1.00
     Exponent=  7.8311438368D+00 Coefficients=  1.0000000000D+00
 D 1 1.00
     Exponent=  3.1324575347D+00 Coefficients=  1.0000000000D+00
 D 1 1.00
     Exponent=  1.2529830139D+00 Coefficients=  1.0000000000D+00
 D 1 1.00
     Exponent=  5.0119320556D-01 Coefficients=  1.0000000000D+00
 D 1 1.00
     Exponent=  2.0047728222D-01 Coefficients=  1.0000000000D+00
 D 1 1.00
     Exponent=  8.0190912889D-02 Coefficients=  1.0000000000D+00
 D 1 1.00
     Exponent=  3.2076365156D-02 Coefficients=  1.0000000000D+00
 F 4 1.00
     Exponent=  8.2289680979D+01 Coefficients=  6.1870000000D-02
     Exponent=  2.9923520356D+01 Coefficients=  2.4823000000D-01
     Exponent=  1.0881280130D+01 Coefficients=  4.9956000000D-01
     Exponent=  3.9568291380D+00 Coefficients=  4.0380000000D-01
 F 1 1.00
     Exponent=  1.4388469593D+00 Coefficients=  1.0000000000D+00
 F 1 1.00
     Exponent=  5.2321707610D-01 Coefficients=  1.0000000000D+00
 G 1 1.00
     Exponent=  2.6700000000D+00 Coefficients=  1.0000000000D+00
 G 1 1.00
     Exponent=  9.0960000000D-01 Coefficients=  1.0000000000D+00
 ****
 Ernie: Thresh=  0.10000D-02 Tol=  0.10000D-05 Strict=F.
 There are  1103 symmetry adapted cartesian basis functions of A   symmetry.
 There are  1025 symmetry adapted basis functions of A   symmetry.
  1025 basis functions,  1616 primitive gaussians,  1103 cartesian basis functions
   164 alpha electrons      164 beta electrons
       nuclear repulsion energy      6841.0751173701 Hartrees.
 IExCor= 1009 DFT=T Ex=PBE Corr=PBE ExCW=0 ScaHFX=  0.000000
 ScaDFX=  1.000000  1.000000  1.000000  1.000000 ScalE2=  1.000000  1.000000
 IRadAn=      0 IRanWt=     -1 IRanGd=            0 ICorTp=0 IEmpDi=  4
 NAtoms=   50 NActive=   50 NUniq=   50 SFac= 1.00D+00 NAtFMM=   60 NAOKFM=F Big=F
 Integral buffers will be    131072 words long.
 Raffenetti 2 integral format.
 Two-electron integral symmetry is turned on.
 ------------------------------------------------------------------------------
 Polarizable Continuum Model (PCM)
 =================================
 Model                : PCM (using non-symmetric T matrix).
 Atomic radii         : UFF (Universal Force Field).
 Polarization charges : Total charges.
 Charge compensation  : None.
 Solution method      : On-the-fly selection.
 Cavity type          : Scaled VdW (van der Waals Surface) (Alpha=1.100).
 Cavity algorithm     : GePol (No added spheres)
                        Default sphere list used, NSphG=   50.
                        Lebedev-Laikov grids with approx.  5.0 points / Ang**2.
                        Smoothing algorithm: Karplus/York (Gamma=1.0000).
                        Polarization charges: spherical gaussians, with
                                              point-specific exponents (IZeta= 3).
                        Self-potential: point-specific (ISelfS= 7).
                        Self-field    : sphere-specific E.n sum rule (ISelfD= 2).
 Solvent              : Dichloromethane, Eps=   8.930000 Eps(inf)=   2.028346
 ------------------------------------------------------------------------------
 GePol: Number of generator spheres                  =      50
 GePol: Total number of spheres                      =      50
 GePol: Number of exposed spheres                    =      50 (100.00%)
 GePol: Number of points                             =    3532
 GePol: Average weight of points                     =       0.14
 GePol: Minimum weight of points                     =   0.19D-11
 GePol: Maximum weight of points                     =    0.21838
 GePol: Number of points with low weight             =     216
 GePol: Fraction of low-weight points (<1% of avg)   =       6.12%
 GePol: Cavity surface area                          =    493.051 Ang**2
 GePol: Cavity volume                                =    580.637 Ang**3
 Leave Link  301 at Tue Mar 12 22:12:05 2019, MaxMem=   939524096 cpu:         0.3
 (Enter /scr/programas/g09/l302.exe)
 NPDir=0 NMtPBC=     1 NCelOv=     1 NCel=       1 NClECP=     1 NCelD=      1
         NCelK=      1 NCelE2=     1 NClLst=     1 CellRange=     0.0.
 One-electron integrals computed using PRISM.
 NBasis=  1025 RedAO= T EigKep=  1.14D-05  NBF=  1025
 NBsUse=  1025 1.00D-06 EigRej= -1.00D+00 NBFU=  1025
 Precomputing XC quadrature grid using
 IXCGrd= 4 IRadAn=           0 IRanWt=          -1 IRanGd=           0 AccXCQ= 0.00D+00.
 Defaulting to unpruned grid for atomic number  78.
 Generated NRdTot=       0 NPtTot=           0 NUsed=           0 NTot=          32
 NSgBfM=   992   993   995   996   996 MxSgAt=    50 MxSgA2=    50.
 Leave Link  302 at Tue Mar 12 22:12:09 2019, MaxMem=   939524096 cpu:         7.5
 (Enter /scr/programas/g09/l308.exe)
 Leave Link  308 at Tue Mar 12 22:12:09 2019, MaxMem=   939524096 cpu:         0.8
 (Enter /scr/programas/g09/l303.exe)
 DipDrv:  MaxL=1.
 Leave Link  303 at Tue Mar 12 22:12:09 2019, MaxMem=   939524096 cpu:         0.5
 (Enter /scr/programas/g09/l401.exe)
 ExpMin= 1.08D-02 ExpMax= 2.16D+06 ExpMxC= 2.16D+06 IAcc=4 IRadAn=    199590 AccDes= 0.00D+00
 Harris functional with IExCor= 1009 and IRadAn=  199590 diagonalized for initial guess.
 HarFok:  IExCor= 1009 AccDes= 0.00D+00 IRadAn=    199590 IDoV= 1 UseB2=F ITyADJ=14
 ICtDFT=  3500011 ScaDFX=  1.000000  1.000000  1.000000  1.000000
 FoFCou: FMM=F IPFlag=           0 FMFlag=      100000 FMFlg1=           0
         NFxFlg=           0 DoJE=T BraDBF=F KetDBF=T FulRan=T
         wScrn=  0.000000 ICntrl=     500 IOpCl=  0 I1Cent=   200000004 NGrid=           0
         NMat0=    1 NMatS0=      1 NMatT0=    0 NMatD0=    1 NMtDS0=    0 NMtDT0=    0
 Petite list used in FoFCou.
 Harris En= -26102.5002402199    
 JPrj=0 DoOrth=F DoCkMO=F.
 Leave Link  401 at Tue Mar 12 22:15:58 2019, MaxMem=   939524096 cpu:       457.4
 (Enter /scr/programas/g09/l502.exe)
 Closed shell SCF:
 Using DIIS extrapolation, IDIIS=  1040.
 Integral symmetry usage will be decided dynamically.
 IVT=     3918677 IEndB=     3918677 NGot=   939524096 MDV=   937074132
 LenX=   937074132 LenY=   935856420
 Requested convergence on RMS density matrix=1.00D-04 within 500 cycles.
 Requested convergence on MAX density matrix=1.00D-02.
 Requested convergence on             energy=1.00D-02.
 No special actions if energy rises.
 Fock matrices will be formed incrementally for  20 cycles.

 Cycle   1  Pass 1  IDiag  1:
 FoFJK:  IHMeth= 1 ICntrl=     500 DoSepK=F KAlg= 0 I1Cent=   0 FoldK=F
 IRaf= 700000000 NMat=   1 IRICut=       1 DoRegI=T DoRafI=F ISym2E= 0.
 FoFCou: FMM=F IPFlag=           0 FMFlag=      100000 FMFlg1=           0
         NFxFlg=           0 DoJE=T BraDBF=F KetDBF=F FulRan=T
         wScrn=  0.000000 ICntrl=     500 IOpCl=  0 I1Cent=           0 NGrid=           0
         NMat0=    1 NMatS0=      1 NMatT0=    0 NMatD0=    1 NMtDS0=    0 NMtDT0=    0
 Symmetry not used in FoFCou.
 Defaulting to unpruned grid for atomic number  78.
 Defaulting to unpruned grid for atomic number  78.
 Inv3:  Mode=1 IEnd=    37425072.
 Iteration    1 A*A^-1 deviation from unit magnitude is 1.02D-14 for   2341.
 Iteration    1 A*A^-1 deviation from orthogonality  is 8.50D-15 for   3477   3029.
 Iteration    1 A^-1*A deviation from unit magnitude is 8.22D-15 for   2137.
 Iteration    1 A^-1*A deviation from orthogonality  is 5.04D-13 for   2067   2029.
 E= -26083.6394894987    
 DIIS: error= 3.08D-01 at cycle   1 NSaved=   1.
 NSaved= 1 IEnMin= 1 EnMin= -26083.6394894987     IErMin= 1 ErrMin= 3.08D-01
 ErrMax= 3.08D-01  0.00D+00 EMaxC= 1.00D-01 BMatC= 3.33D+02 BMatP= 3.33D+02
 IDIUse=3 WtCom= 0.00D+00 WtEn= 1.00D+00
 Coeff-Com:  0.100D+01
 Coeff-En:   0.100D+01
 Coeff:      0.100D+01
 Gap=     0.622 Goal=   None    Shift=    0.000
 GapD=    0.622 DampG=2.000 DampE=0.125 DampFc=0.2500 IDamp=-1.
 Damping current iteration by 2.50D-01
 RMSDP=6.02D-03 MaxDP=1.14D+00              OVMax= 7.13D-01

 Cycle   2  Pass 1  IDiag  1:
 RMSU=  1.49D-03    CP:  1.02D+00
 E= -26085.3459364387     Delta-E=       -1.706446939999 Rises=F Damp=T
 DIIS: error= 2.14D-01 at cycle   2 NSaved=   2.
 NSaved= 2 IEnMin= 2 EnMin= -26085.3459364387     IErMin= 2 ErrMin= 2.14D-01
 ErrMax= 2.14D-01  0.00D+00 EMaxC= 1.00D-01 BMatC= 1.62D+02 BMatP= 3.33D+02
 IDIUse=3 WtCom= 0.00D+00 WtEn= 1.00D+00
 Coeff-Com: -0.205D+01 0.305D+01
 Coeff-En:   0.000D+00 0.100D+01
 Coeff:      0.000D+00 0.100D+01
 Gap=    -0.013 Goal=   None    Shift=    0.000
 RMSDP=1.70D-03 MaxDP=1.62D-01 DE=-1.71D+00 OVMax= 5.64D-01

 Cycle   3  Pass 1  IDiag  1:
 RMSU=  1.66D-03    CP:  1.02D+00  1.26D+00
 E= -26087.3637689896     Delta-E=       -2.017832550911 Rises=F Damp=F
 DIIS: error= 4.44D-02 at cycle   3 NSaved=   3.
 NSaved= 3 IEnMin= 3 EnMin= -26087.3637689896     IErMin= 3 ErrMin= 4.44D-02
 ErrMax= 4.44D-02  0.00D+00 EMaxC= 1.00D-01 BMatC= 9.44D+00 BMatP= 1.62D+02
 IDIUse=3 WtCom= 5.56D-01 WtEn= 4.44D-01
 Coeff-Com:  0.139D+01-0.177D+01 0.138D+01
 Coeff-En:   0.176D+00 0.000D+00 0.824D+00
 Coeff:      0.849D+00-0.982D+00 0.113D+01
 Gap=     0.094 Goal=   None    Shift=    0.000
 RMSDP=2.42D-03 MaxDP=3.23D-01 DE=-2.02D+00 OVMax= 2.60D-01

 Cycle   4  Pass 1  IDiag  1:
 RMSU=  2.14D-03    CP:  1.02D+00  1.31D+00  3.18D-01
 E= -26087.1916998624     Delta-E=        0.172069127133 Rises=F Damp=F
 DIIS: error= 2.59D-02 at cycle   4 NSaved=   4.
 NSaved= 4 IEnMin= 3 EnMin= -26087.3637689896     IErMin= 4 ErrMin= 2.59D-02
 ErrMax= 2.59D-02  0.00D+00 EMaxC= 1.00D-01 BMatC= 2.40D+00 BMatP= 9.44D+00
 IDIUse=3 WtCom= 7.41D-01 WtEn= 2.59D-01
 Coeff-Com:  0.448D+00-0.559D+00 0.629D+00 0.482D+00
 Coeff-En:   0.000D+00 0.000D+00 0.533D+00 0.467D+00
 Coeff:      0.332D+00-0.414D+00 0.604D+00 0.478D+00
 Gap=     0.167 Goal=   None    Shift=    0.000
 RMSDP=2.48D-03 MaxDP=4.11D-01 DE= 1.72D-01 OVMax= 2.98D-01

 Cycle   5  Pass 1  IDiag  1:
 RMSU=  6.26D-04    CP:  1.01D+00  7.83D-01  7.21D-01 -1.22D-02
 E= -26088.1866934012     Delta-E=       -0.994993538792 Rises=F Damp=F
 DIIS: error= 8.43D-03 at cycle   5 NSaved=   5.
 NSaved= 5 IEnMin= 5 EnMin= -26088.1866934012     IErMin= 5 ErrMin= 8.43D-03
 ErrMax= 8.43D-03  0.00D+00 EMaxC= 1.00D-01 BMatC= 4.00D-01 BMatP= 2.40D+00
 IDIUse=3 WtCom= 9.16D-01 WtEn= 8.43D-02
 Coeff-Com:  0.384D-01-0.427D-01 0.158D+00 0.313D+00 0.533D+00
 Coeff-En:   0.000D+00 0.000D+00 0.000D+00 0.241D+00 0.759D+00
 Coeff:      0.351D-01-0.391D-01 0.145D+00 0.307D+00 0.552D+00
 Gap=     0.117 Goal=   None    Shift=    0.000
 RMSDP=9.19D-04 MaxDP=1.97D-01 DE=-9.95D-01 OVMax= 2.01D-01

 Cycle   6  Pass 1  IDiag  1:
 RMSU=  4.66D-04    CP:  1.02D+00  8.51D-01  6.54D-01  2.28D-01  7.08D-02
 E= -26088.4456161175     Delta-E=       -0.258922716224 Rises=F Damp=F
 DIIS: error= 3.76D-03 at cycle   6 NSaved=   6.
 NSaved= 6 IEnMin= 6 EnMin= -26088.4456161175     IErMin= 6 ErrMin= 3.76D-03
 ErrMax= 3.76D-03  0.00D+00 EMaxC= 1.00D-01 BMatC= 7.50D-02 BMatP= 4.00D-01
 IDIUse=3 WtCom= 9.62D-01 WtEn= 3.76D-02
 Coeff-Com: -0.105D+00 0.141D+00-0.243D-01 0.106D+00 0.331D+00 0.551D+00
 Coeff-En:   0.000D+00 0.000D+00 0.000D+00 0.000D+00 0.147D+00 0.853D+00
 Coeff:     -0.101D+00 0.136D+00-0.234D-01 0.102D+00 0.324D+00 0.563D+00
 Gap=     0.116 Goal=   None    Shift=    0.000
 RMSDP=3.77D-04 MaxDP=5.57D-02 DE=-2.59D-01 OVMax= 8.62D-02

 Cycle   7  Pass 1  IDiag  1:
 RMSU=  1.70D-04    CP:  1.02D+00  8.88D-01  6.91D-01  2.04D-01  3.84D-01
                    CP:  4.54D-01
 E= -26088.4977215821     Delta-E=       -0.052105464682 Rises=F Damp=F
 DIIS: error= 1.07D-03 at cycle   7 NSaved=   7.
 NSaved= 7 IEnMin= 7 EnMin= -26088.4977215821     IErMin= 7 ErrMin= 1.07D-03
 ErrMax= 1.07D-03  0.00D+00 EMaxC= 1.00D-01 BMatC= 6.94D-03 BMatP= 7.50D-02
 IDIUse=3 WtCom= 9.89D-01 WtEn= 1.07D-02
 Coeff-Com: -0.262D-01 0.349D-01-0.980D-02 0.285D-01 0.821D-01 0.276D+00
 Coeff-Com:  0.614D+00
 Coeff-En:   0.000D+00 0.000D+00 0.000D+00 0.000D+00 0.000D+00 0.133D+00
 Coeff-En:   0.867D+00
 Coeff:     -0.259D-01 0.345D-01-0.969D-02 0.282D-01 0.812D-01 0.275D+00
 Coeff:      0.617D+00
 Gap=     0.107 Goal=   None    Shift=    0.000
 RMSDP=1.31D-04 MaxDP=3.03D-02 DE=-5.21D-02 OVMax= 4.41D-02

 Cycle   8  Pass 1  IDiag  1:
 RMSU=  7.21D-05    CP:  1.02D+00  8.89D-01  6.72D-01  2.36D-01  3.42D-01
                    CP:  5.80D-01  7.27D-01
 E= -26088.5029223273     Delta-E=       -0.005200745123 Rises=F Damp=F
 DIIS: error= 2.55D-04 at cycle   8 NSaved=   8.
 NSaved= 8 IEnMin= 8 EnMin= -26088.5029223273     IErMin= 8 ErrMin= 2.55D-04
 ErrMax= 2.55D-04  0.00D+00 EMaxC= 1.00D-01 BMatC= 5.61D-04 BMatP= 6.94D-03
 IDIUse=3 WtCom= 9.97D-01 WtEn= 2.55D-03
 Coeff-Com: -0.922D-03 0.111D-02-0.121D-02 0.356D-02 0.562D-02 0.866D-01
 Coeff-Com:  0.354D+00 0.551D+00
 Coeff-En:   0.000D+00 0.000D+00 0.000D+00 0.000D+00 0.000D+00 0.000D+00
 Coeff-En:   0.546D-01 0.945D+00
 Coeff:     -0.920D-03 0.111D-02-0.120D-02 0.355D-02 0.561D-02 0.863D-01
 Coeff:      0.353D+00 0.552D+00
 Gap=     0.107 Goal=   None    Shift=    0.000
 RMSDP=4.19D-05 MaxDP=5.21D-03 DE=-5.20D-03 OVMax= 1.18D-02

 Error on total polarization charges =  0.02305
 SCF Done:  E(RPBE-PBE) =  -26088.5029223     A.U. after    8 cycles
            NFock=  8  Conv=0.42D-04     -V/T= 2.0157
 KE= 2.568616406973D+04 PE=-7.543063991091D+04 EE= 1.681489780148D+04
 Leave Link  502 at Tue Mar 12 23:05:26 2019, MaxMem=   939524096 cpu:      5932.5
 (Enter /scr/programas/g09/l801.exe)
 Range of M.O.s used for correlation:     1  1025
 NBasis=  1025 NAE=   164 NBE=   164 NFC=     0 NFV=     0
 NROrb=   1025 NOA=   164 NOB=   164 NVA=   861 NVB=   861

 **** Warning!!: The largest alpha MO coefficient is  0.56627287D+02

 Leave Link  801 at Tue Mar 12 23:05:26 2019, MaxMem=   939524096 cpu:         0.1
 (Enter /scr/programas/g09/l1002.exe)
 Minotr:  Closed shell wavefunction.
 NEqPCM:  Using equilibrium solvation (IEInf=0, Eps=   8.9300, EpsInf=   2.0283)
          Direct CPHF calculation.
          Differentiating once with respect to magnetic field using GIAOs.
          Electric field/nuclear overlap derivatives assumed to be zero.
          Requested convergence is 1.0D-08 RMS, and 1.0D-07 maximum.
          Secondary convergence is 1.0D-12 RMS, and 1.0D-12 maximum.
          NewPWx=T KeepS1=F KeepF1=F KeepIn=T MapXYZ=F SortEE=F KeepMc=T.
          MDV=     939522667 using IRadAn=       2.
 Defaulting to unpruned grid for atomic number  78.
 Generate precomputed XC quadrature information.
          Solving linear equations simultaneously, MaxMat=       0.
 FoFJK:  IHMeth= 1 ICntrl=    6127 DoSepK=F KAlg= 0 I1Cent=   0 FoldK=F
 IRaf=         1 NMat=   1 IRICut=       1 DoRegI=T DoRafI=F ISym2E= 0.
 Defaulting to unpruned grid for atomic number  78.
 Defaulting to unpruned grid for atomic number  78.
          There are     3 degrees of freedom in the 1st order CPHF.  IDoFFX=0 NUNeed=     3.
      3 vectors produced by pass  0 Test12= 4.71D-12 3.33D-08 XBig12= 1.49D+02 1.41D+00.
 AX will form     3 AO Fock derivatives at one time.
 InvSVY:  IOpt=1 It=  1 EMax= 0.00D+00
 Solved reduced A of dimension     3 with     3 vectors.
 Calculating GIAO nuclear magnetic shielding tensors.
 SCF GIAO Magnetic shielding tensor (ppm):
      1  Pt   Isotropic =  3146.1571   Anisotropy =  1842.8070
   XX=  4343.1733   YX=  -150.9052   ZX=   -97.1780
   XY=  -196.1010   YY=  3298.7201   ZY=  -225.7529
   XZ=  -137.5897   YZ=   -48.6067   ZZ=  1796.5778
   Eigenvalues:  1777.2589  3286.5172  4374.6951
      2  Sn   Isotropic =  2068.4224   Anisotropy =   942.0368
   XX=  1899.8221   YX=   137.6255   ZX=    -2.7680
   XY=   140.6489   YY=  2670.3915   ZY=    29.3146
   XZ=    -2.9341   YZ=    57.9770   ZZ=  1635.0538
   Eigenvalues:  1632.9124  1875.9079  2696.4470
      3  P    Isotropic =   257.1988   Anisotropy =    89.0485
   XX=   286.2953   YX=   -60.9757   ZX=     2.8268
   XY=   -41.8458   YY=   228.4186   ZY=    20.2148
   XZ=    -2.1024   YZ=    -4.9333   ZZ=   256.8826
   Eigenvalues:   197.5849   257.4471   316.5645
      4  P    Isotropic =   274.1324   Anisotropy =    54.6632
   XX=   293.4271   YX=   -32.1626   ZX=   -10.0711
   XY=   -16.0095   YY=   275.5671   ZY=    -1.2602
   XZ=    -5.3476   YZ=    -4.5106   ZZ=   253.4029
   Eigenvalues:   248.5693   263.2533   310.5745
      5  Cl   Isotropic =   751.1317   Anisotropy =   355.4476
   XX=   798.2837   YX=   110.5747   ZX=  -111.6770
   XY=   117.8198   YY=   715.1529   ZY=  -122.6148
   XZ=   -85.4426   YZ=  -159.9270   ZZ=   739.9586
   Eigenvalues:   583.4609   681.8374   988.0968
      6  Cl   Isotropic =   718.5670   Anisotropy =   354.0112
   XX=   693.8557   YX=    28.4117   ZX=    71.0346
   XY=    25.1914   YY=   661.3661   ZY=   163.9297
   XZ=    84.3336   YZ=   210.1467   ZZ=   800.4792
   Eigenvalues:   528.0519   673.0746   954.5745
      7  Cl   Isotropic =   731.2131   Anisotropy =   300.9226
   XX=   794.6844   YX=  -135.9233   ZX=   -16.3970
   XY=  -180.9666   YY=   747.2885   ZY=   -32.7239
   XZ=   -45.2448   YZ=   -78.7798   ZZ=   651.6663
   Eigenvalues:   565.4415   696.3696   931.8282
      8  Cl   Isotropic =   916.1661   Anisotropy =   289.2356
   XX=   715.2215   YX=    -1.3451   ZX=    45.4981
   XY=     4.7414   YY=   932.9389   ZY=    47.0126
   XZ=    57.6634   YZ=   -10.9250   ZZ=  1100.3378
   Eigenvalues:   708.4307   931.0777  1108.9898
      9  C    Isotropic =   151.7582   Anisotropy =    32.0510
   XX=   168.7924   YX=     6.4228   ZX=    -7.5258
   XY=    10.7060   YY=   146.7787   ZY=     0.6355
   XZ=    -8.9157   YZ=     5.9443   ZZ=   139.7036
   Eigenvalues:   134.7923   147.3568   173.1256
     10  H    Isotropic =    28.5047   Anisotropy =     4.3474
   XX=    27.6883   YX=    -0.3380   ZX=    -1.4109
   XY=    -0.4930   YY=    29.5585   ZY=    -1.6192
   XZ=    -0.6845   YZ=    -3.1348   ZZ=    28.2671
   Eigenvalues:    25.8157    28.2953    31.4029
     11  H    Isotropic =    29.9384   Anisotropy =     9.8794
   XX=    35.4590   YX=    -1.3618   ZX=    -2.2197
   XY=    -0.3768   YY=    28.0911   ZY=     2.5184
   XZ=    -3.1606   YZ=     3.4459   ZZ=    26.2652
   Eigenvalues:    23.8094    29.4812    36.5247
     12  C    Isotropic =   173.3031   Anisotropy =    11.5270
   XX=   173.3525   YX=     2.8891   ZX=     3.0143
   XY=     0.4073   YY=   173.8555   ZY=     4.8398
   XZ=     2.8966   YZ=     7.7983   ZZ=   172.7011
   Eigenvalues:   166.7356   172.1859   180.9877
     13  H    Isotropic =    29.3092   Anisotropy =    10.1899
   XX=    33.2659   YX=    -3.2719   ZX=     1.6930
   XY=    -4.5048   YY=    30.7685   ZY=     1.4737
   XZ=     1.4516   YZ=     2.4123   ZZ=    23.8933
   Eigenvalues:    22.7011    29.1241    36.1025
     14  H    Isotropic =    30.2645   Anisotropy =     5.7874
   XX=    29.2449   YX=     2.2593   ZX=     2.4397
   XY=     2.4800   YY=    28.6458   ZY=    -1.0799
   XZ=     2.3757   YZ=    -1.9976   ZZ=    32.9028
   Eigenvalues:    25.5201    31.1507    34.1228
     15  H    Isotropic =    30.2269   Anisotropy =    13.2293
   XX=    37.1168   YX=     4.2468   ZX=     0.8696
   XY=     4.3758   YY=    28.0810   ZY=     1.1335
   XZ=     1.6179   YZ=     1.5580   ZZ=    25.4831
   Eigenvalues:    24.8700    26.7644    39.0465
     16  C    Isotropic =   152.9352   Anisotropy =    33.0314
   XX=   149.8024   YX=   -14.8520   ZX=     4.8843
   XY=   -13.2694   YY=   144.7270   ZY=   -11.5478
   XZ=     4.9168   YZ=   -12.4724   ZZ=   164.2762
   Eigenvalues:   131.6693   152.1801   174.9562
     17  H    Isotropic =    28.9246   Anisotropy =     7.3142
   XX=    27.4239   YX=    -2.7975   ZX=     1.6283
   XY=    -0.7673   YY=    32.9311   ZY=    -0.9353
   XZ=     2.6203   YZ=    -1.0262   ZZ=    26.4189
   Eigenvalues:    24.7229    28.2502    33.8007
     18  H    Isotropic =    29.7225   Anisotropy =     9.7990
   XX=    34.6449   YX=    -2.2907   ZX=     1.8706
   XY=    -3.6786   YY=    26.7685   ZY=    -1.8339
   XZ=     1.5869   YZ=    -2.0097   ZZ=    27.7540
   Eigenvalues:    25.0423    27.8699    36.2551
     19  C    Isotropic =   169.0628   Anisotropy =    23.0024
   XX=   161.8887   YX=    -3.8154   ZX=     0.5044
   XY=    -1.7873   YY=   161.0116   ZY=    -0.6003
   XZ=    -0.9385   YZ=    -2.6018   ZZ=   184.2881
   Eigenvalues:   158.5428   164.2479   184.3977
     20  H    Isotropic =    30.4299   Anisotropy =     5.3953
   XX=    26.3002   YX=     0.2160   ZX=     1.6024
   XY=     0.3310   YY=    32.9178   ZY=     0.6442
   XZ=     2.3534   YZ=     1.7397   ZZ=    32.0716
   Eigenvalues:    25.6862    31.5767    34.0267
     21  H    Isotropic =    29.8239   Anisotropy =     6.7433
   XX=    32.4610   YX=     0.3308   ZX=     2.4371
   XY=     0.5628   YY=    24.5909   ZY=    -1.8858
   XZ=     1.0290   YZ=    -2.2509   ZZ=    32.4198
   Eigenvalues:    23.9897    31.1625    34.3194
     22  H    Isotropic =    30.2803   Anisotropy =    13.8387
   XX=    27.2466   YX=    -2.2483   ZX=     3.1492
   XY=    -2.2779   YY=    27.4594   ZY=    -3.9971
   XZ=     4.1427   YZ=    -4.9707   ZZ=    36.1349
   Eigenvalues:    25.0332    26.3015    39.5061
     23  C    Isotropic =   147.6676   Anisotropy =    35.4247
   XX=   136.7107   YX=    -6.2598   ZX=    -7.9914
   XY=    -8.7550   YY=   151.1237   ZY=    12.3916
   XZ=    -6.3247   YZ=    17.4338   ZZ=   155.1685
   Eigenvalues:   133.4477   138.2710   171.2841
     24  H    Isotropic =    29.8428   Anisotropy =    10.3206
   XX=    32.0451   YX=    -4.8622   ZX=    -1.5717
   XY=    -5.9365   YY=    28.6667   ZY=     1.6301
   XZ=    -1.7516   YZ=     1.8417   ZZ=    28.8166
   Eigenvalues:    24.6516    28.1536    36.7232
     25  H    Isotropic =    28.4893   Anisotropy =     5.1989
   XX=    27.2640   YX=     0.4082   ZX=    -3.6788
   XY=     1.5906   YY=    31.3093   ZY=     1.4201
   XZ=    -4.4789   YZ=     1.9373   ZZ=    26.8947
   Eigenvalues:    22.5799    30.9328    31.9552
     26  C    Isotropic =   172.0608   Anisotropy =    18.5226
   XX=   166.4103   YX=    -5.1759   ZX=     2.5863
   XY=    -7.0584   YY=   165.7533   ZY=    -0.6671
   XZ=     2.2920   YZ=     0.3319   ZZ=   184.0187
   Eigenvalues:   159.8544   171.9187   184.4092
     27  H    Isotropic =    30.2078   Anisotropy =    13.9004
   XX=    25.4541   YX=    -1.4791   ZX=    -1.6668
   XY=    -1.5061   YY=    28.9749   ZY=     4.7755
   XZ=    -1.8540   YZ=     6.0988   ZZ=    36.1943
   Eigenvalues:    24.8951    26.2536    39.4747
     28  H    Isotropic =    30.3643   Anisotropy =     6.4962
   XX=    32.0898   YX=    -2.8712   ZX=    -1.3463
   XY=    -3.2437   YY=    25.4857   ZY=     1.6610
   XZ=     0.0842   YZ=     1.6583   ZZ=    33.5174
   Eigenvalues:    24.1009    32.2969    34.6951
     29  H    Isotropic =    30.5036   Anisotropy =     7.8344
   XX=    27.8199   YX=     2.4429   ZX=    -3.0070
   XY=     2.8858   YY=    30.6221   ZY=    -0.7200
   XZ=    -3.6521   YZ=    -1.6325   ZZ=    33.0688
   Eigenvalues:    25.4412    30.3431    35.7265
     30  C    Isotropic =   154.6157   Anisotropy =    24.1356
   XX=   168.0442   YX=     4.7156   ZX=     6.3999
   XY=     0.5867   YY=   154.3263   ZY=    -6.8323
   XZ=    10.9921   YZ=    -3.7721   ZZ=   141.4766
   Eigenvalues:   136.9212   156.2198   170.7061
     31  H    Isotropic =    27.9512   Anisotropy =    13.2950
   XX=    36.3637   YX=    -2.1563   ZX=     1.0726
   XY=    -1.3000   YY=    28.8031   ZY=     3.2204
   XZ=     2.6572   YZ=     3.4715   ZZ=    18.6869
   Eigenvalues:    17.4039    29.6352    36.8146
     32  H    Isotropic =    28.8364   Anisotropy =     7.8805
   XX=    30.1181   YX=     1.6389   ZX=     0.2978
   XY=     2.2225   YY=    28.4395   ZY=    -4.4671
   XZ=    -1.6359   YZ=    -5.5397   ZZ=    27.9514
   Eigenvalues:    23.0790    29.3400    34.0901
     33  C    Isotropic =   169.0614   Anisotropy =    24.7083
   XX=   182.5856   YX=     4.3726   ZX=     7.7854
   XY=     3.8129   YY=   164.2845   ZY=     3.0043
   XZ=     5.7909   YZ=     2.5831   ZZ=   160.3142
   Eigenvalues:   157.9526   163.6980   185.5337
     34  H    Isotropic =    30.3165   Anisotropy =     7.8557
   XX=    30.1419   YX=     2.1441   ZX=     4.1829
   XY=     2.5156   YY=    28.0425   ZY=     0.2967
   XZ=     2.8416   YZ=     0.3197   ZZ=    32.7650
   Eigenvalues:    25.9989    29.3969    35.5536
     35  H    Isotropic =    29.7894   Anisotropy =    13.2041
   XX=    31.7114   YX=     6.4537   ZX=     1.2572
   XY=     5.0774   YY=    33.5945   ZY=    -0.1866
   XZ=     1.8301   YZ=     0.6733   ZZ=    24.0622
   Eigenvalues:    23.6404    27.1355    38.5921
     36  H    Isotropic =    30.5053   Anisotropy =     7.4737
   XX=    35.1765   YX=    -0.9248   ZX=    -1.5173
   XY=    -0.5316   YY=    29.4232   ZY=     2.4284
   XZ=    -0.6194   YZ=     1.8210   ZZ=    26.9160
   Eigenvalues:    25.6679    30.3601    35.4877
     37  C    Isotropic =   151.2513   Anisotropy =    34.7721
   XX=   161.6326   YX=    -8.4710   ZX=     8.1055
   XY=   -11.7737   YY=   138.4101   ZY=   -14.1566
   XZ=     9.1824   YZ=   -13.0144   ZZ=   153.7112
   Eigenvalues:   129.7575   149.5637   174.4327
     38  H    Isotropic =    28.9218   Anisotropy =     7.9876
   XX=    27.9262   YX=    -0.5813   ZX=     2.4314
   XY=     0.0597   YY=    26.5942   ZY=     2.3169
   XZ=     3.5211   YZ=     2.2132   ZZ=    32.2449
   Eigenvalues:    25.0284    27.4900    34.2468
     39  H    Isotropic =    28.9338   Anisotropy =     8.0461
   XX=    33.2665   YX=     2.7516   ZX=     2.3595
   XY=     1.7281   YY=    27.4458   ZY=    -2.2244
   XZ=     2.2961   YZ=    -3.0405   ZZ=    26.0890
   Eigenvalues:    23.0384    29.4651    34.2978
     40  C    Isotropic =   171.1482   Anisotropy =    23.9916
   XX=   182.2800   YX=    -9.1360   ZX=     2.9833
   XY=    -6.9515   YY=   168.6844   ZY=    -6.4812
   XZ=     2.4226   YZ=    -6.4241   ZZ=   162.4804
   Eigenvalues:   158.2177   168.0844   187.1427
     41  H    Isotropic =    30.0882   Anisotropy =    13.2629
   XX=    30.5959   YX=    -3.3141   ZX=     5.5385
   XY=    -3.2363   YY=    27.5434   ZY=    -4.6642
   XZ=     4.5966   YZ=    -3.6177   ZZ=    32.1253
   Eigenvalues:    25.0660    26.2685    38.9301
     42  H    Isotropic =    30.4275   Anisotropy =     8.0606
   XX=    35.5085   YX=     1.5719   ZX=    -0.3580
   XY=     0.7889   YY=    29.4361   ZY=    -2.1273
   XZ=    -0.3732   YZ=    -2.5309   ZZ=    26.3379
   Eigenvalues:    25.0844    30.3969    35.8012
     43  H    Isotropic =    29.6792   Anisotropy =     5.1813
   XX=    30.7639   YX=    -2.0022   ZX=     1.4150
   XY=    -0.6730   YY=    32.2372   ZY=     2.2995
   XZ=     2.2249   YZ=     1.5494   ZZ=    26.0366
   Eigenvalues:    24.7350    31.1693    33.1334
     44  C    Isotropic =   152.9418   Anisotropy =    31.8614
   XX=   164.3264   YX=     2.0626   ZX=   -13.5341
   XY=     4.5853   YY=   143.8265   ZY=    14.6930
   XZ=   -13.7529   YZ=    17.7643   ZZ=   150.6725
   Eigenvalues:   127.1193   157.5234   174.1827
     45  H    Isotropic =    29.2838   Anisotropy =     8.7011
   XX=    34.0470   YX=     0.3454   ZX=    -0.9704
   XY=     1.1103   YY=    22.4147   ZY=     2.0985
   XZ=    -2.9196   YZ=     2.1655   ZZ=    31.3896
   Eigenvalues:    21.8254    30.9414    35.0845
     46  H    Isotropic =    28.0846   Anisotropy =     7.8113
   XX=    28.6394   YX=     2.3574   ZX=    -4.4649
   XY=     0.8580   YY=    31.8063   ZY=    -1.0347
   XZ=    -4.0588   YZ=    -0.5773   ZZ=    23.8083
   Eigenvalues:    21.3238    29.6379    33.2922
     47  C    Isotropic =   169.6517   Anisotropy =    25.6463
   XX=   181.4218   YX=     1.8363   ZX=   -10.6390
   XY=     1.3726   YY=   159.6141   ZY=     0.0558
   XZ=    -9.2874   YZ=     1.3622   ZZ=   167.9192
   Eigenvalues:   159.0429   163.1630   186.7492
     48  H    Isotropic =    30.4258   Anisotropy =     8.3094
   XX=    35.8645   YX=    -1.2867   ZX=     0.9123
   XY=    -0.5662   YY=    25.8870   ZY=    -0.2355
[...]
    42  H    0.000000   0.000000   0.000000   0.000000   0.000000   0.002435
    43  H    0.000000   0.000000   0.000000   0.000000   0.000000   0.001111
    44  C    0.000000   0.000002   0.000000  -0.000004   0.000000   0.014828
    45  H    0.000000   0.000000   0.000000   0.000000   0.000000  -0.006647
    46  H    0.000000   0.000000   0.000000   0.000000   0.000000  -0.000871
    47  C    0.000000   0.000000   0.000000   0.000000   0.000000   0.023811
    48  H    0.000000   0.000000   0.000000   0.000000   0.000000  -0.000708
    49  H    0.000000   0.000000   0.000000   0.000000   0.000000   0.006666
    50  H    0.000000   0.000000   0.000000   0.000000   0.000000  -0.000332
              31         32         33         34         35         36
     1  Pt   0.020128  -0.025484   0.017028  -0.008893  -0.006490  -0.001443
     2  Sn   0.000964   0.000838   0.000206   0.000352  -0.000167  -0.000670
     3  P    0.001631  -0.000339   0.000891  -0.000154  -0.000103   0.000022
     4  P    0.031968   0.071711   0.003529   0.022128   0.006652   0.017505
     5  Cl  -0.000012  -0.000006   0.000006  -0.000002   0.000000   0.000001
     6  Cl  -0.000023  -0.000003   0.000027   0.000003   0.000000   0.000001
     7  Cl  -0.000069   0.000040  -0.000522   0.000063   0.000041  -0.000201
     8  Cl   0.012905   0.003066  -0.000717  -0.000453   0.000811   0.000107
     9  C    0.000000   0.000000   0.000000   0.000000   0.000000   0.000000
    10  H    0.000000   0.000000   0.000000   0.000000   0.000000   0.000000
    11  H    0.000000   0.000000   0.000000   0.000000   0.000000   0.000000
    12  C    0.000000   0.000000   0.000000   0.000000   0.000000   0.000000
    13  H    0.000000   0.000000   0.000000   0.000000   0.000000   0.000000
    14  H    0.000000   0.000000   0.000000   0.000000   0.000000   0.000000
    15  H    0.000000   0.000000   0.000000   0.000000   0.000000   0.000000
    16  C   -0.000011   0.000003   0.000000   0.000000   0.000000   0.000000
    17  H    0.000000   0.000000   0.000000   0.000000   0.000000   0.000000
    18  H    0.000000   0.000000   0.000000   0.000000   0.000000   0.000000
    19  C    0.000008  -0.000004   0.000000   0.000000   0.000000   0.000000
    20  H    0.000000   0.000000   0.000000   0.000000   0.000000   0.000000
    21  H    0.000000   0.000000   0.000000   0.000000   0.000000   0.000000
    22  H    0.000000   0.000000   0.000000   0.000000   0.000000   0.000000
    23  C    0.000014  -0.000002   0.000013   0.000000   0.000000   0.000000
    24  H    0.000000   0.000000   0.000000   0.000000   0.000000   0.000000
    25  H    0.000004   0.000000   0.000000   0.000000   0.000000   0.000000
    26  C    0.000006   0.000000  -0.000002   0.000000   0.000000   0.000000
    27  H    0.000000   0.000000   0.000000   0.000000   0.000000   0.000000
    28  H    0.000000   0.000000   0.000002   0.000000   0.000000   0.000000
    29  H    0.000000   0.000000   0.000000   0.000000   0.000000   0.000000
    30  C    0.346444   0.365039   0.331182   0.016511   0.044306   0.033431
    31  H    0.456938   0.009985   0.023296  -0.001428  -0.002282  -0.000784
    32  H    0.009985   0.475487   0.005471  -0.000565  -0.001953  -0.001330
    33  C    0.023296   0.005471   4.750603   0.363307   0.358962   0.347685
    34  H   -0.001428  -0.000565   0.363307   0.459073   0.011389   0.014319
    35  H   -0.002282  -0.001953   0.358962   0.011389   0.444112   0.011360
    36  H   -0.000784  -0.001330   0.347685   0.014319   0.011360   0.463200
    37  C   -0.007159  -0.000590   0.011656   0.003914   0.000011  -0.001238
    38  H    0.000539   0.000022   0.002651   0.002981  -0.000020  -0.000058
    39  H   -0.000009  -0.000004   0.000185  -0.000071   0.000000   0.000007
    40  C    0.000211   0.000283   0.005908  -0.002623  -0.000053  -0.000743
    41  H   -0.000001   0.000000  -0.000670  -0.000043   0.000000   0.000024
    42  H    0.000030   0.000007   0.004383   0.001676   0.000009   0.000059
    43  H    0.000000   0.000001  -0.000747   0.000046   0.000000   0.000092
    44  C   -0.000800  -0.005884  -0.024563   0.001737   0.000411   0.000943
    45  H   -0.000030   0.000185  -0.000036   0.000001  -0.000001   0.000011
    46  H   -0.000007   0.000049   0.000260   0.000001   0.000000   0.000007
    47  C    0.000091   0.004193   0.011761  -0.000971  -0.000608   0.004999
    48  H    0.000006  -0.000088  -0.003731   0.000108   0.000021   0.000505
    49  H   -0.000051   0.002148  -0.001418   0.000041  -0.000009   0.000949
    50  H    0.000000   0.000001  -0.000068   0.000000   0.000000   0.000027
              37         38         39         40         41         42
     1  Pt  -0.003471   0.008487   0.009728   0.008567  -0.004628  -0.002614
     2  Sn  -0.020423  -0.000948  -0.000575  -0.000270   0.001786  -0.000823
     3  P   -0.001878   0.000778  -0.000303   0.000552  -0.000040  -0.000006
     4  P    0.106915   0.045433   0.050096   0.021014   0.007927   0.009266
     5  Cl   0.000764   0.000112  -0.001020   0.000278  -0.000039  -0.000005
     6  Cl  -0.000889   0.000043  -0.000270   0.000114   0.000004  -0.000001
     7  Cl  -0.011961   0.000025   0.013576  -0.005120  -0.000057  -0.000907
     8  Cl   0.001798  -0.000175   0.000289   0.000133   0.000025   0.000061
     9  C   -0.000009   0.000000  -0.000001   0.000000   0.000000   0.000000
    10  H    0.000001   0.000000   0.000000   0.000000   0.000000   0.000000
    11  H    0.000000   0.000000   0.000000   0.000000   0.000000   0.000000
    12  C   -0.000006   0.000000   0.000000   0.000000   0.000000   0.000000
    13  H    0.000000   0.000000   0.000000   0.000000   0.000000   0.000000
    14  H    0.000000   0.000000   0.000000   0.000000   0.000000   0.000000
    15  H    0.000000   0.000000   0.000000   0.000000   0.000000   0.000000
    16  C    0.000020   0.000000   0.000000   0.000000   0.000000   0.000000
    17  H    0.000000   0.000000   0.000000   0.000000   0.000000   0.000000
    18  H    0.000000   0.000000   0.000000   0.000000   0.000000   0.000000
    19  C   -0.000006   0.000000   0.000000   0.000000   0.000000   0.000000
    20  H    0.000000   0.000000   0.000000   0.000000   0.000000   0.000000
    21  H   -0.000001   0.000000   0.000000   0.000000   0.000000   0.000000
    22  H    0.000000   0.000000   0.000000   0.000000   0.000000   0.000000
    23  C   -0.000077   0.000004   0.000003   0.000001   0.000000   0.000000
    24  H    0.000000   0.000000   0.000000   0.000000   0.000000   0.000000
    25  H    0.000001   0.000000   0.000000   0.000000   0.000000   0.000000
    26  C    0.000093  -0.000016  -0.000008  -0.000003   0.000000   0.000000
    27  H    0.000000   0.000000   0.000000   0.000000   0.000000   0.000000
    28  H   -0.000166  -0.000007   0.000001   0.000000   0.000000   0.000000
    29  H   -0.000002   0.000000   0.000000   0.000000   0.000000   0.000000
    30  C    0.041224  -0.006226  -0.000481  -0.030717   0.000436   0.002435
    31  H   -0.007159   0.000539  -0.000009   0.000211  -0.000001   0.000030
    32  H   -0.000590   0.000022  -0.000004   0.000283   0.000000   0.000007
    33  C    0.011656   0.002651   0.000185   0.005908  -0.000670   0.004383
    34  H    0.003914   0.002981  -0.000071  -0.002623  -0.000043   0.001676
    35  H    0.000011  -0.000020   0.000000  -0.000053   0.000000   0.000009
    36  H   -0.001238  -0.000058   0.000007  -0.000743   0.000024   0.000059
    37  C    4.984809   0.373940   0.339635   0.288604   0.046997   0.041612
    38  H    0.373940   0.478746   0.009696   0.002042  -0.001920  -0.001568
    39  H    0.339635   0.009696   0.473487   0.027003  -0.001748  -0.000808
    40  C    0.288604   0.002042   0.027003   4.764933   0.353391   0.345079
    41  H    0.046997  -0.001920  -0.001748   0.353391   0.447560   0.012711
    42  H    0.041612  -0.001568  -0.000808   0.345079   0.012711   0.464513
    43  H    0.028491  -0.000698  -0.001774   0.356280   0.012298   0.014450
    44  C    0.057241  -0.000927  -0.007730   0.007053  -0.000140   0.001894
    45  H   -0.000552  -0.000010  -0.000009  -0.000063   0.000000   0.000011
    46  H   -0.013254   0.000034   0.000287   0.008819  -0.000028  -0.000276
    47  C   -0.013689   0.000083  -0.000010   0.004247  -0.000085  -0.002868
    48  H    0.001100   0.000006   0.000007   0.003886   0.000027   0.000700
    49  H    0.000806   0.000001   0.000001  -0.000401   0.000000   0.000076
    50  H    0.000250   0.000000  -0.000001  -0.000294   0.000000   0.000014
              43         44         45         46         47         48
     1  Pt  -0.001815   0.005706   0.036341  -0.012866  -0.004118  -0.002359
     2  Sn  -0.002457  -0.000570  -0.006673   0.002373   0.002538  -0.002460
     3  P    0.000052  -0.002084   0.000751   0.000123   0.000309   0.000008
     4  P    0.008641   0.089582   0.042638   0.081525  -0.038158   0.018820
     5  Cl   0.000111   0.000637   0.000004   0.000004   0.000026   0.000003
     6  Cl   0.000048  -0.001760   0.000304  -0.001242  -0.000372   0.000030
     7  Cl   0.011474  -0.037464  -0.001190   0.025073  -0.001560  -0.000840
     8  Cl  -0.000021  -0.000102   0.001147  -0.000023   0.000031   0.000156
     9  C    0.000000   0.000034   0.000002   0.000000   0.000000   0.000000
    10  H    0.000000   0.000000   0.000000   0.000000   0.000000   0.000000
    11  H    0.000000   0.000000   0.000000   0.000000   0.000000   0.000000
    12  C    0.000000   0.000004  -0.000001   0.000000   0.000000   0.000000
    13  H    0.000000   0.000001   0.000000   0.000000   0.000000   0.000000
    14  H    0.000000   0.000000   0.000000   0.000000   0.000000   0.000000
    15  H    0.000000   0.000000   0.000000   0.000000   0.000000   0.000000
    16  C    0.000000  -0.000157   0.000006  -0.000001   0.000000   0.000000
    17  H    0.000000  -0.000001   0.000000   0.000000   0.000000   0.000000
    18  H    0.000000   0.000000   0.000000   0.000000   0.000000   0.000000
    19  C    0.000000   0.000100   0.000035   0.000001   0.000000   0.000000
    20  H    0.000000   0.000000   0.000000   0.000000   0.000000   0.000000
    21  H    0.000000  -0.000003   0.000001   0.000000  -0.000004   0.000000
    22  H    0.000000   0.000000   0.000000   0.000000   0.000000   0.000000
    23  C    0.000000  -0.000004   0.000001   0.000000   0.000000   0.000000
    24  H    0.000000   0.000000   0.000000   0.000000   0.000000   0.000000
    25  H    0.000000   0.000000   0.000000   0.000000   0.000000   0.000000
    26  C    0.000000   0.000002   0.000000   0.000000   0.000000   0.000000
    27  H    0.000000   0.000000   0.000000   0.000000   0.000000   0.000000
    28  H    0.000000  -0.000004   0.000000   0.000000   0.000000   0.000000
    29  H    0.000000   0.000000   0.000000   0.000000   0.000000   0.000000
    30  C    0.001111   0.014828  -0.006647  -0.000871   0.023811  -0.000708
    31  H    0.000000  -0.000800  -0.000030  -0.000007   0.000091   0.000006
    32  H    0.000001  -0.005884   0.000185   0.000049   0.004193  -0.000088
    33  C   -0.000747  -0.024563  -0.000036   0.000260   0.011761  -0.003731
    34  H    0.000046   0.001737   0.000001   0.000001  -0.000971   0.000108
    35  H    0.000000   0.000411  -0.000001   0.000000  -0.000608   0.000021
    36  H    0.000092   0.000943   0.000011   0.000007   0.004999   0.000505
    37  C    0.028491   0.057241  -0.000552  -0.013254  -0.013689   0.001100
    38  H   -0.000698  -0.000927  -0.000010   0.000034   0.000083   0.000006
    39  H   -0.001774  -0.007730  -0.000009   0.000287  -0.000010   0.000007
    40  C    0.356280   0.007053  -0.000063   0.008819   0.004247   0.003886
    41  H    0.012298  -0.000140   0.000000  -0.000028  -0.000085   0.000027
    42  H    0.014450   0.001894   0.000011  -0.000276  -0.002868   0.000700
    43  H    0.462266   0.000894  -0.000022   0.001514   0.000457   0.000282
    44  C    0.000894   4.990563   0.335282   0.349053   0.343964   0.028408
    45  H   -0.000022   0.335282   0.484995   0.010000   0.016414  -0.000669
    46  H    0.001514   0.349053   0.010000   0.470716   0.005920  -0.001229
    47  C    0.000457   0.343964   0.016414   0.005920   4.802624   0.356921
    48  H    0.000282   0.028408  -0.000669  -0.001229   0.356921   0.463988
    49  H    0.000016   0.029923  -0.001475  -0.000730   0.355912   0.014250
    50  H    0.000006   0.042745  -0.001424  -0.002111   0.359340   0.011445
              49         50
     1  Pt  -0.006914  -0.001077
     2  Sn  -0.000127   0.002955
     3  P   -0.000132   0.000001
     4  P    0.013457   0.000628
     5  Cl   0.000001  -0.000003
     6  Cl  -0.000020  -0.000096
     7  Cl   0.000341  -0.000673
     8  Cl  -0.000315   0.000009
     9  C    0.000000   0.000000
    10  H    0.000000   0.000000
    11  H    0.000000   0.000000
    12  C    0.000000   0.000000
    13  H    0.000000   0.000000
    14  H    0.000000   0.000000
    15  H    0.000000   0.000000
    16  C    0.000000   0.000000
    17  H    0.000000   0.000000
    18  H    0.000000   0.000000
    19  C    0.000000   0.000000
    20  H    0.000000   0.000000
    21  H    0.000000   0.000000
    22  H    0.000000   0.000000
    23  C    0.000000   0.000000
    24  H    0.000000   0.000000
    25  H    0.000000   0.000000
    26  C    0.000000   0.000000
    27  H    0.000000   0.000000
    28  H    0.000000   0.000000
    29  H    0.000000   0.000000
    30  C    0.006666  -0.000332
    31  H   -0.000051   0.000000
    32  H    0.002148   0.000001
    33  C   -0.001418  -0.000068
    34  H    0.000041   0.000000
    35  H   -0.000009   0.000000
    36  H    0.000949   0.000027
    37  C    0.000806   0.000250
    38  H    0.000001   0.000000
    39  H    0.000001  -0.000001
    40  C   -0.000401  -0.000294
    41  H    0.000000   0.000000
    42  H    0.000076   0.000014
    43  H    0.000016   0.000006
    44  C    0.029923   0.042745
    45  H   -0.001475  -0.001424
    46  H   -0.000730  -0.002111
    47  C    0.355912   0.359340
    48  H    0.014250   0.011445
    49  H    0.460178   0.010920
    50  H    0.010920   0.440842
 Mulliken charges:
               1
     1  Pt   0.379591
     2  Sn   0.300747
     3  P    0.145821
     4  P    0.076450
     5  Cl  -0.206914
     6  Cl  -0.239121
     7  Cl  -0.193819
     8  Cl  -0.475982
     9  C   -0.509667
    10  H    0.109690
    11  H    0.107156
    12  C   -0.071775
    13  H    0.076498
    14  H    0.080719
    15  H    0.130313
    16  C   -0.387658
    17  H    0.112767
    18  H    0.115954
    19  C   -0.110214
    20  H    0.086453
    21  H    0.088080
    22  H    0.133236
    23  C   -0.351579
    24  H    0.115596
    25  H    0.110538
    26  C   -0.162331
    27  H    0.143403
    28  H    0.082285
    29  H    0.110220
    30  C   -0.350505
    31  H    0.107498
    32  H    0.097723
    33  C   -0.206539
    34  H    0.117553
    35  H    0.133602
    36  H    0.111213
    37  C   -0.254509
    38  H    0.086950
    39  H    0.090818
    40  C   -0.158111
    41  H    0.126215
    42  H    0.110889
    43  H    0.109006
    44  C   -0.218812
    45  H    0.090671
    46  H    0.076879
    47  C   -0.231199
    48  H    0.111406
    49  H    0.115903
    50  H    0.136893
 Sum of Mulliken charges =   0.00000
 Mulliken charges with hydrogens summed into heavy atoms:
               1
     1  Pt   0.379591
     2  Sn   0.300747
     3  P    0.145821
     4  P    0.076450
     5  Cl  -0.206914
     6  Cl  -0.239121
     7  Cl  -0.193819
     8  Cl  -0.475982
     9  C   -0.292822
    12  C    0.215755
    16  C   -0.158937
    19  C    0.197556
    23  C   -0.125444
    26  C    0.173577
    30  C   -0.145284
    33  C    0.155828
    37  C   -0.076742
    40  C    0.187999
    44  C   -0.051262
    47  C    0.133003
 Electronic spatial extent (au):  <R**2>=          11727.6678
 Charge=              0.0000 electrons
 Dipole moment (field-independent basis, Debye):
    X=             -1.7267    Y=             -6.8785    Z=             -1.5737  Tot=              7.2644
 Quadrupole moment (field-independent basis, Debye-Ang):
   XX=           -175.3294   YY=           -250.4703   ZZ=           -212.5740
   XY=            -10.3798   XZ=             -0.7822   YZ=              3.3917
 Traceless Quadrupole moment (field-independent basis, Debye-Ang):
   XX=             37.4619   YY=            -37.6791   ZZ=              0.2172
   XY=            -10.3798   XZ=             -0.7822   YZ=              3.3917
 Octapole moment (field-independent basis, Debye-Ang**2):
  XXX=              7.7616  YYY=            -51.8087  ZZZ=            -14.0431  XYY=             10.6699
  XXY=            -63.6768  XXZ=              0.1150  XZZ=             -7.7912  YZZ=            -32.9371
  YYZ=            -10.7739  XYZ=              1.1955
 Hexadecapole moment (field-independent basis, Debye-Ang**3):
 XXXX=          -7342.5199 YYYY=          -5739.9051 ZZZZ=          -2323.1276 XXXY=             -9.3939
 XXXZ=             -2.9133 YYYX=            -25.0334 YYYZ=             43.7806 ZZZX=             -8.5938
 ZZZY=             -4.2976 XXYY=          -2135.1211 XXZZ=          -1633.6642 YYZZ=          -1305.8794
 XXYZ=             13.4507 YYXZ=             -3.0714 ZZXY=            -56.5692
 N-N= 6.841075117370D+03 E-N=-7.542983315448D+04  KE= 2.568616406973D+04
 Calculating spin-rotation constants.
 Leave Link  601 at Wed Mar 13 00:51:45 2019, MaxMem=   939524096 cpu:       138.2
 (Enter /scr/programas/g09/l9999.exe)
 1\1\GINC-NQTCM\SP\RPBEPBE\Gen\C12H30Cl4P2Pt1Sn1\NQTCM\13-Mar-2019\0\\#
 PBEPBE/gen scf=(maxcycle=500,conver=4) NMR=GIAO scrf=(solvent=Dichloro
 methane)\\estrutura 1\\0,1\Pt,0,0.008478,-0.806757,-0.022433\Sn,0,0.36
 7747,1.744482,-0.035943\P,0,2.354835,-1.356642,-0.162179\P,0,-2.395694
 ,-0.547253,-0.01432\Cl,0,1.918929,2.812377,-1.558637\Cl,0,1.106312,2.6
 30848,2.089268\Cl,0,-1.49294,3.262831,-0.375499\Cl,0,-0.210409,-3.2006
 1,0.352046\C,0,3.732234,-0.135342,-0.44315\H,0,3.49798,0.433648,-1.355
 649\H,0,4.592147,-0.786829,-0.679515\C,0,4.094699,0.81434,0.704067\H,0
 ,3.444817,1.703402,0.726734\H,0,4.028769,0.324222,1.686937\H,0,5.13322
 6,1.166842,0.585181\C,0,2.947719,-2.333315,1.304898\H,0,2.660831,-3.37
 8616,1.107316\H,0,4.05218,-2.289032,1.281837\C,0,2.401362,-1.893691,2.
 667683\H,0,2.573638,-0.828429,2.872832\H,0,1.321368,-2.076553,2.720334
 \H,0,2.88459,-2.473975,3.470393\C,0,2.592386,-2.512839,-1.591121\H,0,3
 .643404,-2.850401,-1.556989\H,0,1.955994,-3.383224,-1.36972\C,0,2.2444
 49,-1.928748,-2.963365\H,0,2.402978,-2.690577,-3.743777\H,0,1.188688,-
 1.618066,-3.006781\H,0,2.86502,-1.056429,-3.221589\C,0,-3.278489,-2.18
 2679,0.005667\H,0,-2.615216,-2.863026,-0.543948\H,0,-3.245462,-2.53413
 9,1.048443\C,0,-4.696206,-2.258255,-0.565294\H,0,-4.709783,-2.037702,-
 1.642965\H,0,-5.0776,-3.284357,-0.444849\H,0,-5.410773,-1.585383,-0.07
 1432\C,0,-3.011928,0.308961,-1.551428\H,0,-3.073187,-0.485032,-2.31462
 1\H,0,-2.211332,0.986311,-1.876395\C,0,-4.326672,1.091862,-1.456584\H,
 0,-4.615099,1.436182,-2.459485\H,0,-5.163396,0.49325,-1.06892\H,0,-4.2
 08342,1.986047,-0.822489\C,0,-2.974857,0.418299,1.476801\H,0,-2.179446
 ,0.29311,2.22951\H,0,-2.956608,1.478331,1.174735\C,0,-4.331657,0.05644
 ,2.088249\H,0,-5.16876,0.250357,1.401345\H,0,-4.379062,-0.99876,2.3971
 72\H,0,-4.497761,0.667429,2.990163\\Version=EM64L-G09RevD.01\State=1-A
 \HF=-26088.5029223\RMSD=4.191e-05\Dipole=-0.6793364,-2.7062133,-0.6191
 3\Quadrupole=27.8519816,-28.0134988,0.1615172,-7.7171285,-0.5815723,2.
 5216216\PG=C01 [X(C12H30Cl4P2Pt1Sn1)]\\@


 What some people mistake for the high cost
 of living is really the cost of living high.
                              -- Doug Larson
 Job cpu time:       0 days  5 hours 17 minutes  7.0 seconds.
 File lengths (MBytes):  RWF=    799 Int=      0 D2E=      0 Chk=     59 Scr=      1
 Normal termination of Gaussian 09 at Wed Mar 13 00:51:45 2019.
